 
             +---------------------------------------------------+
             |                                                   |
             |                   WANNIER90                       |
             |                                                   |
             +---------------------------------------------------+
             |                                                   |
             |        Welcome to the Maximally-Localized         |
             |        Generalized Wannier Functions code         |
             |            http://www.wannier.org                 |
             |                                                   |
             |                                                   |
             |  Wannier90 Developer Group:                       |
             |    Giovanni Pizzi    (EPFL)                       |
             |    Valerio Vitale    (Cambridge)                  |
             |    David Vanderbilt  (Rutgers University)         |
             |    Nicola Marzari    (EPFL)                       |
             |    Ivo Souza         (Universidad del Pais Vasco) |
             |    Arash A. Mostofi  (Imperial College London)    |
             |    Jonathan R. Yates (University of Oxford)       |
             |                                                   |
             |  For the full list of Wannier90 3.x authors,      |
             |  please check the code documentation and the      |
             |  README on the GitHub page of the code            |
             |                                                   |
             |                                                   |
             |  Please cite                                      |
             |                                                   |
             |  [ref] "Wannier90 as a community code:            |
             |        new features and applications",            |
             |        G. Pizzi et al., J. Phys. Cond. Matt. 32,  |
             |        165902 (2020).                             |
             |        http://doi.org/10.1088/1361-648X/ab51ff    |
             |                                                   |
             |  in any publications arising from the use of      |
             |  this code. For the method please cite            |
             |                                                   |
             |  [ref] "Maximally Localized Generalised Wannier   |
             |         Functions for Composite Energy Bands"     |
             |         N. Marzari and D. Vanderbilt              |
             |         Phys. Rev. B 56 12847 (1997)              |
             |                                                   |
             |  [ref] "Maximally Localized Wannier Functions     |
             |         for Entangled Energy Bands"               |
             |         I. Souza, N. Marzari and D. Vanderbilt    |
             |         Phys. Rev. B 65 035109 (2001)             |
             |                                                   |
             |                                                   |
             | Copyright (c) 1996-2020                           |
             |        The Wannier90 Developer Group and          |
             |        individual contributors                    |
             |                                                   |
             |      Release: 3.1.0        5th March    2020      |
             |                                                   |
             | This program is free software; you can            |
             | redistribute it and/or modify it under the terms  |
             | of the GNU General Public License as published by |
             | the Free Software Foundation; either version 2 of |
             | the License, or (at your option) any later version|
             |                                                   |
             | This program is distributed in the hope that it   |
             | will be useful, but WITHOUT ANY WARRANTY; without |
             | even the implied warranty of MERCHANTABILITY or   |
             | FITNESS FOR A PARTICULAR PURPOSE. See the GNU     |
             | General Public License for more details.          |
             |                                                   |
             | You should have received a copy of the GNU General|
             | Public License along with this program; if not,   |
             | write to the Free Software Foundation, Inc.,      |
             | 675 Mass Ave, Cambridge, MA 02139, USA.           |
             |                                                   |
             +---------------------------------------------------+
             |    Execution started on 29May2025 at 11:20:08     |
             +---------------------------------------------------+
 
 ******************************************************************************
 * -> Using CODATA 2006 constant values                                       *
 *    (http://physics.nist.gov/cuu/Constants/index.html)                      *
 * -> Using Bohr value from CODATA                                            *
 ******************************************************************************
 

 Running in serial (with parallel executable)
 
                                    ------
                                    SYSTEM
                                    ------
 
                              Lattice Vectors (Ang)
                    a_1     4.458000   0.000000   0.000000
                    a_2    -2.229000   3.860741   0.000000
                    a_3     0.000000   0.000000   5.925000
 
                   Unit Cell Volume:     101.97628  (Ang^3)
 
                        Reciprocal-Space Vectors (Ang^-1)
                    b_1     1.409418   0.813728   0.000000
                    b_2     0.000000   1.627456   0.000000
                    b_3     0.000000   0.000000   1.060453
  
 *----------------------------------------------------------------------------*
 |   Site       Fractional Coordinate          Cartesian Coordinate (Ang)     |
 +----------------------------------------------------------------------------+
 | Te   1   0.74500   0.00000   0.33333   |    3.32121   0.00000   1.97500    |
 | Te   2  -0.00000   0.74500   0.66667   |   -1.66061   2.87625   3.95000    |
 | Te   3   0.25500   0.25500   0.00000   |    0.56839   0.98449   0.00000    |
 *----------------------------------------------------------------------------*
                                -----------
                                PROJECTIONS
                                -----------
  
 +----------------------------------------------------------------------------+
 |     Frac. Coord.   l mr  r        z-axis               x-axis          Z/a |
 +----------------------------------------------------------------------------+
 |  0.74  0.00  0.33  1  1  1  0.000  0.000  1.000  1.000  0.000  0.000   1.0 |
 |  0.74  0.00  0.33  1  1  1  0.000  0.000  1.000  1.000  0.000  0.000   1.0 |
 |  0.74  0.00  0.33  1  2  1  0.000  0.000  1.000  1.000  0.000  0.000   1.0 |
 |  0.74  0.00  0.33  1  2  1  0.000  0.000  1.000  1.000  0.000  0.000   1.0 |
 |  0.74  0.00  0.33  1  3  1  0.000  0.000  1.000  1.000  0.000  0.000   1.0 |
 |  0.74  0.00  0.33  1  3  1  0.000  0.000  1.000  1.000  0.000  0.000   1.0 |
 |  0.00  0.74  0.67  1  1  1  0.000  0.000  1.000  1.000  0.000  0.000   1.0 |
 |  0.00  0.74  0.67  1  1  1  0.000  0.000  1.000  1.000  0.000  0.000   1.0 |
 |  0.00  0.74  0.67  1  2  1  0.000  0.000  1.000  1.000  0.000  0.000   1.0 |
 |  0.00  0.74  0.67  1  2  1  0.000  0.000  1.000  1.000  0.000  0.000   1.0 |
 |  0.00  0.74  0.67  1  3  1  0.000  0.000  1.000  1.000  0.000  0.000   1.0 |
 |  0.00  0.74  0.67  1  3  1  0.000  0.000  1.000  1.000  0.000  0.000   1.0 |
 |  0.26  0.26  0.00  1  1  1  0.000  0.000  1.000  1.000  0.000  0.000   1.0 |
 |  0.26  0.26  0.00  1  1  1  0.000  0.000  1.000  1.000  0.000  0.000   1.0 |
 |  0.26  0.26  0.00  1  2  1  0.000  0.000  1.000  1.000  0.000  0.000   1.0 |
 |  0.26  0.26  0.00  1  2  1  0.000  0.000  1.000  1.000  0.000  0.000   1.0 |
 |  0.26  0.26  0.00  1  3  1  0.000  0.000  1.000  1.000  0.000  0.000   1.0 |
 |  0.26  0.26  0.00  1  3  1  0.000  0.000  1.000  1.000  0.000  0.000   1.0 |
 +----------------------------------------------------------------------------+
  
                                ------------
                                K-POINT GRID
                                ------------
  
             Grid size =  9 x  9 x  4      Total points =  324
  
 *----------------------------------------------------------------------------*
 | k-point      Fractional Coordinate        Cartesian Coordinate (Ang^-1)    |
 +----------------------------------------------------------------------------+
 |     1    0.00000   0.00000   0.00000   |    0.00000   0.00000   0.00000    |
 |     2    0.11111   0.00000   0.00000   |    0.15660   0.09041   0.00000    |
 |     3    0.22222   0.00000   0.00000   |    0.31320   0.18083   0.00000    |
 |     4    0.33333   0.00000   0.00000   |    0.46981   0.27124   0.00000    |
 |     5    0.44444   0.00000   0.00000   |    0.62641   0.36166   0.00000    |
 |     6    0.11111   0.11111   0.00000   |    0.15660   0.27124   0.00000    |
 |     7    0.22222   0.11111   0.00000   |    0.31320   0.36166   0.00000    |
 |     8    0.33333   0.11111   0.00000   |    0.46981   0.45207   0.00000    |
 |     9    0.44444   0.11111   0.00000   |    0.62641   0.54249   0.00000    |
 |    10    0.22222   0.22222   0.00000   |    0.31320   0.54249   0.00000    |
 |    11    0.33333   0.22222   0.00000   |    0.46981   0.63290   0.00000    |
 |    12   -0.11111   0.22222   0.00000   |   -0.15660   0.27124   0.00000    |
 |    13    0.33333   0.33333   0.00000   |    0.46981   0.81373   0.00000    |
 |    14   -0.22222   0.33333   0.00000   |   -0.31320   0.36166   0.00000    |
 |    15   -0.33333   0.44444   0.00000   |   -0.46981   0.45207   0.00000    |
 |    16   -0.22222   0.44444   0.00000   |   -0.31320   0.54249   0.00000    |
 |    17   -0.44444  -0.44444   0.00000   |   -0.62641  -1.08497   0.00000    |
 |    18   -0.33333  -0.44444   0.00000   |   -0.46981  -0.99456   0.00000    |
 |    19   -0.33333  -0.33333   0.00000   |   -0.46981  -0.81373   0.00000    |
 |    20    0.00000   0.00000   0.25000   |    0.00000   0.00000   0.26511    |
 |    21    0.11111   0.00000   0.25000   |    0.15660   0.09041   0.26511    |
 |    22    0.22222   0.00000   0.25000   |    0.31320   0.18083   0.26511    |
 |    23    0.33333   0.00000   0.25000   |    0.46981   0.27124   0.26511    |
 |    24    0.44444   0.00000   0.25000   |    0.62641   0.36166   0.26511    |
 |    25   -0.44444   0.00000   0.25000   |   -0.62641  -0.36166   0.26511    |
 |    26   -0.33333   0.00000   0.25000   |   -0.46981  -0.27124   0.26511    |
 |    27   -0.22222   0.00000   0.25000   |   -0.31320  -0.18083   0.26511    |
 |    28   -0.11111   0.00000   0.25000   |   -0.15660  -0.09041   0.26511    |
 |    29    0.11111   0.11111   0.25000   |    0.15660   0.27124   0.26511    |
 |    30    0.22222   0.11111   0.25000   |    0.31320   0.36166   0.26511    |
 |    31    0.33333   0.11111   0.25000   |    0.46981   0.45207   0.26511    |
 |    32    0.44444   0.11111   0.25000   |    0.62641   0.54249   0.26511    |
 |    33   -0.44444   0.11111   0.25000   |   -0.62641  -0.18083   0.26511    |
 |    34   -0.33333   0.11111   0.25000   |   -0.46981  -0.09041   0.26511    |
 |    35    0.22222   0.22222   0.25000   |    0.31320   0.54249   0.26511    |
 |    36    0.33333   0.22222   0.25000   |    0.46981   0.63290   0.26511    |
 |    37    0.44444   0.22222   0.25000   |    0.62641   0.72331   0.26511    |
 |    38   -0.11111   0.22222   0.25000   |   -0.15660   0.27124   0.26511    |
 |    39    0.33333   0.33333   0.25000   |    0.46981   0.81373   0.26511    |
 |    40   -0.22222   0.33333   0.25000   |   -0.31320   0.36166   0.26511    |
 |    41   -0.11111   0.33333   0.25000   |   -0.15660   0.45207   0.26511    |
 |    42   -0.33333   0.44444   0.25000   |   -0.46981   0.45207   0.26511    |
 |    43   -0.22222   0.44444   0.25000   |   -0.31320   0.54249   0.26511    |
 |    44   -0.11111   0.44444   0.25000   |   -0.15660   0.63290   0.26511    |
 |    45   -0.44444  -0.44444   0.25000   |   -0.62641  -1.08497   0.26511    |
 |    46   -0.33333  -0.44444   0.25000   |   -0.46981  -0.99456   0.26511    |
 |    47   -0.22222  -0.44444   0.25000   |   -0.31320  -0.90414   0.26511    |
 |    48   -0.33333  -0.33333   0.25000   |   -0.46981  -0.81373   0.26511    |
 |    49    0.00000   0.00000   0.50000   |    0.00000   0.00000   0.53023    |
 |    50    0.11111   0.00000   0.50000   |    0.15660   0.09041   0.53023    |
 |    51    0.22222   0.00000   0.50000   |    0.31320   0.18083   0.53023    |
 |    52    0.33333   0.00000   0.50000   |    0.46981   0.27124   0.53023    |
 |    53    0.44444   0.00000   0.50000   |    0.62641   0.36166   0.53023    |
 |    54    0.11111   0.11111   0.50000   |    0.15660   0.27124   0.53023    |
 |    55    0.22222   0.11111   0.50000   |    0.31320   0.36166   0.53023    |
 |    56    0.33333   0.11111   0.50000   |    0.46981   0.45207   0.53023    |
 |    57    0.44444   0.11111   0.50000   |    0.62641   0.54249   0.53023    |
 |    58    0.22222   0.22222   0.50000   |    0.31320   0.54249   0.53023    |
 |    59    0.33333   0.22222   0.50000   |    0.46981   0.63290   0.53023    |
 |    60   -0.11111   0.22222   0.50000   |   -0.15660   0.27124   0.53023    |
 |    61    0.33333   0.33333   0.50000   |    0.46981   0.81373   0.53023    |
 |    62   -0.22222   0.33333   0.50000   |   -0.31320   0.36166   0.53023    |
 |    63   -0.33333   0.44444   0.50000   |   -0.46981   0.45207   0.53023    |
 |    64   -0.22222   0.44444   0.50000   |   -0.31320   0.54249   0.53023    |
 |    65   -0.44444  -0.44444   0.50000   |   -0.62641  -1.08497   0.53023    |
 |    66   -0.33333  -0.44444   0.50000   |   -0.46981  -0.99456   0.53023    |
 |    67   -0.33333  -0.33333   0.50000   |   -0.46981  -0.81373   0.53023    |
 |    68    0.00000   0.11111   0.00000   |    0.00000   0.18083   0.00000    |
 |    69   -0.11111   0.11111   0.00000   |   -0.15660   0.09041   0.00000    |
 |    70    0.00000  -0.11111   0.00000   |    0.00000  -0.18083   0.00000    |
 |    71    0.11111  -0.11111   0.00000   |    0.15660  -0.09041   0.00000    |
 |    72   -0.11111   0.00000   0.00000   |   -0.15660  -0.09041   0.00000    |
 |    73    0.00000   0.22222   0.00000   |    0.00000   0.36166   0.00000    |
 |    74   -0.22222   0.22222   0.00000   |   -0.31320   0.18083   0.00000    |
 |    75    0.00000  -0.22222   0.00000   |    0.00000  -0.36166   0.00000    |
 |    76    0.22222  -0.22222   0.00000   |    0.31320  -0.18083   0.00000    |
 |    77   -0.22222   0.00000   0.00000   |   -0.31320  -0.18083   0.00000    |
 |    78    0.00000   0.33333   0.00000   |    0.00000   0.54249   0.00000    |
 |    79   -0.33333   0.33333   0.00000   |   -0.46981   0.27124   0.00000    |
 |    80    0.00000  -0.33333   0.00000   |    0.00000  -0.54249   0.00000    |
 |    81    0.33333  -0.33333   0.00000   |    0.46981  -0.27124   0.00000    |
 |    82   -0.33333   0.00000   0.00000   |   -0.46981  -0.27124   0.00000    |
 |    83    0.00000   0.44444   0.00000   |    0.00000   0.72331   0.00000    |
 |    84   -0.44444   0.44444   0.00000   |   -0.62641   0.36166   0.00000    |
 |    85    0.00000  -0.44444   0.00000   |    0.00000  -0.72331   0.00000    |
 |    86    0.44444  -0.44444   0.00000   |    0.62641  -0.36166   0.00000    |
 |    87   -0.44444   0.00000   0.00000   |   -0.62641  -0.36166   0.00000    |
 |    88   -0.22222   0.11111   0.00000   |   -0.31320   0.00000   0.00000    |
 |    89    0.11111  -0.22222   0.00000   |    0.15660  -0.27124   0.00000    |
 |    90    0.11111   0.22222   0.00000   |    0.15660   0.45207   0.00000    |
 |    91   -0.33333   0.22222   0.00000   |   -0.46981   0.09041   0.00000    |
 |    92    0.11111  -0.33333   0.00000   |    0.15660  -0.45207   0.00000    |
 |    93    0.22222  -0.33333   0.00000   |    0.31320  -0.36166   0.00000    |
 |    94   -0.33333   0.11111   0.00000   |   -0.46981  -0.09041   0.00000    |
 |    95    0.11111   0.33333   0.00000   |    0.15660   0.63290   0.00000    |
 |    96   -0.44444   0.33333   0.00000   |   -0.62641   0.18083   0.00000    |
 |    97    0.11111  -0.44444   0.00000   |    0.15660  -0.63290   0.00000    |
 |    98    0.33333  -0.44444   0.00000   |    0.46981  -0.45207   0.00000    |
 |    99   -0.44444   0.11111   0.00000   |   -0.62641  -0.18083   0.00000    |
 |   100    0.11111   0.44444   0.00000   |    0.15660   0.81373   0.00000    |
 |   101   -0.55556   0.44444   0.00000   |   -0.78301   0.27124   0.00000    |
 |   102   -0.44444   0.22222   0.00000   |   -0.62641   0.00000   0.00000    |
 |   103    0.22222  -0.44444   0.00000   |    0.31320  -0.54249   0.00000    |
 |   104    0.22222   0.33333   0.00000   |    0.31320   0.72331   0.00000    |
 |   105   -0.55556   0.33333   0.00000   |   -0.78301   0.09041   0.00000    |
 |   106    0.22222  -0.55556   0.00000   |    0.31320  -0.72331   0.00000    |
 |   107    0.33333  -0.55556   0.00000   |    0.46981  -0.63290   0.00000    |
 |   108   -0.55556   0.22222   0.00000   |   -0.78301  -0.09041   0.00000    |
 |   109    0.22222  -0.11111   0.00000   |    0.31320   0.00000   0.00000    |
 |   110   -0.11111  -0.11111   0.00000   |   -0.15660  -0.27124   0.00000    |
 |   111    0.33333  -0.22222   0.00000   |    0.46981  -0.09041   0.00000    |
 |   112   -0.11111  -0.22222   0.00000   |   -0.15660  -0.45207   0.00000    |
 |   113    0.33333  -0.11111   0.00000   |    0.46981   0.09041   0.00000    |
 |   114   -0.22222  -0.11111   0.00000   |   -0.31320  -0.36166   0.00000    |
 |   115   -0.11111   0.33333   0.00000   |   -0.15660   0.45207   0.00000    |
 |   116    0.44444  -0.33333   0.00000   |    0.62641  -0.18083   0.00000    |
 |   117   -0.11111  -0.33333   0.00000   |   -0.15660  -0.63290   0.00000    |
 |   118    0.44444  -0.11111   0.00000   |    0.62641   0.18083   0.00000    |
 |   119   -0.33333  -0.11111   0.00000   |   -0.46981  -0.45207   0.00000    |
 |   120   -0.11111   0.44444   0.00000   |   -0.15660   0.63290   0.00000    |
 |   121    0.44444  -0.22222   0.00000   |    0.62641   0.00000   0.00000    |
 |   122   -0.22222  -0.22222   0.00000   |   -0.31320  -0.54249   0.00000    |
 |   123    0.88889  -0.44444   0.00000   |    1.25282   0.00000   0.00000    |
 |   124   -0.44444   0.88889   0.00000   |   -0.62641   1.08497   0.00000    |
 |   125   -0.44444  -0.33333   0.00000   |   -0.62641  -0.90414   0.00000    |
 |   126    0.77778  -0.33333   0.00000   |    1.09621   0.09041   0.00000    |
 |   127   -0.44444   0.77778   0.00000   |   -0.62641   0.90414   0.00000    |
 |   128   -0.33333   0.77778   0.00000   |   -0.46981   0.99456   0.00000    |
 |   129    0.77778  -0.44444   0.00000   |    1.09621  -0.09041   0.00000    |
 |   130    0.00000   0.00000  -0.25000   |    0.00000   0.00000  -0.26511    |
 |   131    0.00000   0.11111  -0.25000   |    0.00000   0.18083  -0.26511    |
 |   132   -0.11111   0.11111   0.25000   |   -0.15660   0.09041   0.26511    |
 |   133    0.00000  -0.11111   0.25000   |    0.00000  -0.18083   0.26511    |
 |   134    0.11111  -0.11111  -0.25000   |    0.15660  -0.09041  -0.26511    |
 |   135   -0.11111   0.00000  -0.25000   |   -0.15660  -0.09041  -0.26511    |
 |   136    0.00000   0.22222  -0.25000   |    0.00000   0.36166  -0.26511    |
 |   137   -0.22222   0.22222   0.25000   |   -0.31320   0.18083   0.26511    |
 |   138    0.00000  -0.22222   0.25000   |    0.00000  -0.36166   0.26511    |
 |   139    0.22222  -0.22222  -0.25000   |    0.31320  -0.18083  -0.26511    |
 |   140   -0.22222   0.00000  -0.25000   |   -0.31320  -0.18083  -0.26511    |
 |   141    0.00000   0.33333  -0.25000   |    0.00000   0.54249  -0.26511    |
 |   142   -0.33333   0.33333   0.25000   |   -0.46981   0.27124   0.26511    |
 |   143    0.00000  -0.33333   0.25000   |    0.00000  -0.54249   0.26511    |
 |   144    0.33333  -0.33333  -0.25000   |    0.46981  -0.27124  -0.26511    |
 |   145   -0.33333   0.00000  -0.25000   |   -0.46981  -0.27124  -0.26511    |
 |   146    0.00000   0.44444  -0.25000   |    0.00000   0.72331  -0.26511    |
 |   147   -0.44444   0.44444   0.25000   |   -0.62641   0.36166   0.26511    |
 |   148    0.00000  -0.44444   0.25000   |    0.00000  -0.72331   0.26511    |
 |   149    0.44444  -0.44444  -0.25000   |    0.62641  -0.36166  -0.26511    |
 |   150   -0.44444   0.00000  -0.25000   |   -0.62641  -0.36166  -0.26511    |
 |   151    0.00000  -0.44444  -0.25000   |    0.00000  -0.72331  -0.26511    |
 |   152    0.44444  -0.44444   0.25000   |    0.62641  -0.36166   0.26511    |
 |   153    0.00000   0.44444   0.25000   |    0.00000   0.72331   0.26511    |
 |   154   -0.44444   0.44444  -0.25000   |   -0.62641   0.36166  -0.26511    |
 |   155    0.44444   0.00000  -0.25000   |    0.62641   0.36166  -0.26511    |
 |   156    0.00000  -0.33333  -0.25000   |    0.00000  -0.54249  -0.26511    |
 |   157    0.33333  -0.33333   0.25000   |    0.46981  -0.27124   0.26511    |
 |   158    0.00000   0.33333   0.25000   |    0.00000   0.54249   0.26511    |
 |   159   -0.33333   0.33333  -0.25000   |   -0.46981   0.27124  -0.26511    |
 |   160    0.33333   0.00000  -0.25000   |    0.46981   0.27124  -0.26511    |
 |   161    0.00000  -0.22222  -0.25000   |    0.00000  -0.36166  -0.26511    |
 |   162    0.22222  -0.22222   0.25000   |    0.31320  -0.18083   0.26511    |
 |   163    0.00000   0.22222   0.25000   |    0.00000   0.36166   0.26511    |
 |   164   -0.22222   0.22222  -0.25000   |   -0.31320   0.18083  -0.26511    |
 |   165    0.22222   0.00000  -0.25000   |    0.31320   0.18083  -0.26511    |
 |   166    0.00000  -0.11111  -0.25000   |    0.00000  -0.18083  -0.26511    |
 |   167    0.11111  -0.11111   0.25000   |    0.15660  -0.09041   0.26511    |
 |   168    0.00000   0.11111   0.25000   |    0.00000   0.18083   0.26511    |
 |   169   -0.11111   0.11111  -0.25000   |   -0.15660   0.09041  -0.26511    |
 |   170    0.11111   0.00000  -0.25000   |    0.15660   0.09041  -0.26511    |
 |   171    0.11111   0.11111  -0.25000   |    0.15660   0.27124  -0.26511    |
 |   172   -0.22222   0.11111   0.25000   |   -0.31320   0.00000   0.26511    |
 |   173    0.11111  -0.22222   0.25000   |    0.15660  -0.27124   0.26511    |
 |   174    0.11111  -0.22222  -0.25000   |    0.15660  -0.27124  -0.26511    |
 |   175   -0.22222   0.11111  -0.25000   |   -0.31320   0.00000  -0.26511    |
 |   176    0.11111   0.22222  -0.25000   |    0.15660   0.45207  -0.26511    |
 |   177   -0.33333   0.22222   0.25000   |   -0.46981   0.09041   0.26511    |
 |   178    0.11111  -0.33333   0.25000   |    0.15660  -0.45207   0.26511    |
 |   179    0.22222  -0.33333  -0.25000   |    0.31320  -0.36166  -0.26511    |
 |   180   -0.33333   0.11111  -0.25000   |   -0.46981  -0.09041  -0.26511    |
 |   181    0.11111   0.33333  -0.25000   |    0.15660   0.63290  -0.26511    |
 |   182   -0.44444   0.33333   0.25000   |   -0.62641   0.18083   0.26511    |
 |   183    0.11111  -0.44444   0.25000   |    0.15660  -0.63290   0.26511    |
 |   184    0.33333  -0.44444  -0.25000   |    0.46981  -0.45207  -0.26511    |
 |   185   -0.44444   0.11111  -0.25000   |   -0.62641  -0.18083  -0.26511    |
 |   186    0.11111   0.44444  -0.25000   |    0.15660   0.81373  -0.26511    |
 |   187   -0.55556   0.44444   0.25000   |   -0.78301   0.27124   0.26511    |
 |   188    0.11111  -0.55556   0.25000   |    0.15660  -0.81373   0.26511    |
 |   189    0.44444  -0.55556  -0.25000   |    0.62641  -0.54249  -0.26511    |
 |   190   -0.55556   0.11111  -0.25000   |   -0.78301  -0.27124  -0.26511    |
 |   191    0.11111  -0.44444  -0.25000   |    0.15660  -0.63290  -0.26511    |
 |   192    0.33333  -0.44444   0.25000   |    0.46981  -0.45207   0.26511    |
 |   193    0.11111   0.33333   0.25000   |    0.15660   0.63290   0.26511    |
 |   194   -0.44444   0.33333  -0.25000   |   -0.62641   0.18083  -0.26511    |
 |   195    0.33333   0.11111  -0.25000   |    0.46981   0.45207  -0.26511    |
 |   196    0.11111  -0.33333  -0.25000   |    0.15660  -0.45207  -0.26511    |
 |   197    0.22222  -0.33333   0.25000   |    0.31320  -0.36166   0.26511    |
 |   198    0.11111   0.22222   0.25000   |    0.15660   0.45207   0.26511    |
 |   199   -0.33333   0.22222  -0.25000   |   -0.46981   0.09041  -0.26511    |
 |   200    0.22222   0.11111  -0.25000   |    0.31320   0.36166  -0.26511    |
 |   201    0.22222   0.22222  -0.25000   |    0.31320   0.54249  -0.26511    |
 |   202   -0.44444   0.22222   0.25000   |   -0.62641   0.00000   0.26511    |
 |   203    0.22222  -0.44444   0.25000   |    0.31320  -0.54249   0.26511    |
 |   204    0.22222  -0.44444  -0.25000   |    0.31320  -0.54249  -0.26511    |
 |   205   -0.44444   0.22222  -0.25000   |   -0.62641   0.00000  -0.26511    |
 |   206    0.22222   0.33333  -0.25000   |    0.31320   0.72331  -0.26511    |
 |   207   -0.55556   0.33333   0.25000   |   -0.78301   0.09041   0.26511    |
 |   208    0.22222  -0.55556   0.25000   |    0.31320  -0.72331   0.26511    |
 |   209    0.33333  -0.55556  -0.25000   |    0.46981  -0.63290  -0.26511    |
 |   210   -0.55556   0.22222  -0.25000   |   -0.78301  -0.09041  -0.26511    |
 |   211    0.22222   0.44444  -0.25000   |    0.31320   0.90414  -0.26511    |
 |   212   -0.66667   0.44444   0.25000   |   -0.93961   0.18083   0.26511    |
 |   213    0.22222  -0.66667   0.25000   |    0.31320  -0.90414   0.26511    |
 |   214    0.44444  -0.66667  -0.25000   |    0.62641  -0.72331  -0.26511    |
 |   215   -0.66667   0.22222  -0.25000   |   -0.93961  -0.18083  -0.26511    |
 |   216    0.22222  -0.11111  -0.25000   |    0.31320   0.00000  -0.26511    |
 |   217   -0.11111  -0.11111   0.25000   |   -0.15660  -0.27124   0.26511    |
 |   218    0.22222  -0.11111   0.25000   |    0.31320   0.00000   0.26511    |
 |   219   -0.11111  -0.11111  -0.25000   |   -0.15660  -0.27124  -0.26511    |
 |   220   -0.11111   0.22222  -0.25000   |   -0.15660   0.27124  -0.26511    |
 |   221    0.33333   0.33333  -0.25000   |    0.46981   0.81373  -0.26511    |
 |   222    0.33333  -0.22222  -0.25000   |    0.46981  -0.09041  -0.26511    |
 |   223   -0.11111  -0.22222   0.25000   |   -0.15660  -0.45207   0.26511    |
 |   224    0.33333  -0.11111   0.25000   |    0.46981   0.09041   0.26511    |
 |   225   -0.22222  -0.11111  -0.25000   |   -0.31320  -0.36166  -0.26511    |
 |   226   -0.11111   0.33333  -0.25000   |   -0.15660   0.45207  -0.26511    |
 |   227    0.33333  -0.11111  -0.25000   |    0.46981   0.09041  -0.26511    |
 |   228   -0.22222  -0.11111   0.25000   |   -0.31320  -0.36166   0.26511    |
 |   229    0.33333  -0.22222   0.25000   |    0.46981  -0.09041   0.26511    |
 |   230   -0.11111  -0.22222  -0.25000   |   -0.15660  -0.45207  -0.26511    |
 |   231   -0.22222   0.33333  -0.25000   |   -0.31320   0.36166  -0.26511    |
 |   232    0.44444  -0.33333  -0.25000   |    0.62641  -0.18083  -0.26511    |
 |   233   -0.11111  -0.33333   0.25000   |   -0.15660  -0.63290   0.26511    |
 |   234    0.44444  -0.11111   0.25000   |    0.62641   0.18083   0.26511    |
 |   235   -0.33333  -0.11111  -0.25000   |   -0.46981  -0.45207  -0.26511    |
 |   236   -0.11111   0.44444  -0.25000   |   -0.15660   0.63290  -0.26511    |
 |   237    0.44444  -0.22222  -0.25000   |    0.62641   0.00000  -0.26511    |
 |   238   -0.22222  -0.22222   0.25000   |   -0.31320  -0.54249   0.26511    |
 |   239    0.44444  -0.22222   0.25000   |    0.62641   0.00000   0.26511    |
 |   240   -0.22222  -0.22222  -0.25000   |   -0.31320  -0.54249  -0.26511    |
 |   241   -0.22222   0.44444  -0.25000   |   -0.31320   0.54249  -0.26511    |
 |   242    0.44444  -0.11111  -0.25000   |    0.62641   0.18083  -0.26511    |
 |   243   -0.33333  -0.11111   0.25000   |   -0.46981  -0.45207   0.26511    |
 |   244    0.44444  -0.33333   0.25000   |    0.62641  -0.18083   0.26511    |
 |   245   -0.11111  -0.33333  -0.25000   |   -0.15660  -0.63290  -0.26511    |
 |   246   -0.33333   0.44444  -0.25000   |   -0.46981   0.45207  -0.26511    |
 |   247   -0.44444  -0.44444  -0.25000   |   -0.62641  -1.08497  -0.26511    |
 |   248    0.88889  -0.44444   0.25000   |    1.25282   0.00000   0.26511    |
 |   249   -0.44444   0.88889   0.25000   |   -0.62641   1.08497   0.26511    |
 |   250   -0.44444   0.88889  -0.25000   |   -0.62641   1.08497  -0.26511    |
 |   251    0.88889  -0.44444  -0.25000   |    1.25282   0.00000  -0.26511    |
 |   252   -0.44444  -0.33333  -0.25000   |   -0.62641  -0.90414  -0.26511    |
 |   253    0.77778  -0.33333   0.25000   |    1.09621   0.09041   0.26511    |
 |   254   -0.44444   0.77778   0.25000   |   -0.62641   0.90414   0.26511    |
 |   255   -0.33333   0.77778  -0.25000   |   -0.46981   0.99456  -0.26511    |
 |   256    0.77778  -0.44444  -0.25000   |    1.09621  -0.09041  -0.26511    |
 |   257   -0.44444  -0.22222  -0.25000   |   -0.62641  -0.72331  -0.26511    |
 |   258    0.66667  -0.22222   0.25000   |    0.93961   0.18083   0.26511    |
 |   259   -0.44444   0.66667   0.25000   |   -0.62641   0.72331   0.26511    |
 |   260   -0.22222   0.66667  -0.25000   |   -0.31320   0.90414  -0.26511    |
 |   261    0.66667  -0.44444  -0.25000   |    0.93961  -0.18083  -0.26511    |
 |   262   -0.33333  -0.33333  -0.25000   |   -0.46981  -0.81373  -0.26511    |
 |   263    0.00000   0.11111  -0.50000   |    0.00000   0.18083  -0.53023    |
 |   264   -0.11111   0.11111   0.50000   |   -0.15660   0.09041   0.53023    |
 |   265    0.00000  -0.11111   0.50000   |    0.00000  -0.18083   0.53023    |
 |   266    0.11111  -0.11111  -0.50000   |    0.15660  -0.09041  -0.53023    |
 |   267   -0.11111   0.00000  -0.50000   |   -0.15660  -0.09041  -0.53023    |
 |   268    0.00000   0.22222  -0.50000   |    0.00000   0.36166  -0.53023    |
 |   269   -0.22222   0.22222   0.50000   |   -0.31320   0.18083   0.53023    |
 |   270    0.00000  -0.22222   0.50000   |    0.00000  -0.36166   0.53023    |
 |   271    0.22222  -0.22222  -0.50000   |    0.31320  -0.18083  -0.53023    |
 |   272   -0.22222   0.00000  -0.50000   |   -0.31320  -0.18083  -0.53023    |
 |   273    0.00000   0.33333  -0.50000   |    0.00000   0.54249  -0.53023    |
 |   274   -0.33333   0.33333   0.50000   |   -0.46981   0.27124   0.53023    |
 |   275    0.00000  -0.33333   0.50000   |    0.00000  -0.54249   0.53023    |
 |   276    0.33333  -0.33333  -0.50000   |    0.46981  -0.27124  -0.53023    |
 |   277   -0.33333   0.00000  -0.50000   |   -0.46981  -0.27124  -0.53023    |
 |   278    0.00000   0.44444  -0.50000   |    0.00000   0.72331  -0.53023    |
 |   279   -0.44444   0.44444   0.50000   |   -0.62641   0.36166   0.53023    |
 |   280    0.00000  -0.44444   0.50000   |    0.00000  -0.72331   0.53023    |
 |   281    0.44444  -0.44444  -0.50000   |    0.62641  -0.36166  -0.53023    |
 |   282   -0.44444   0.00000  -0.50000   |   -0.62641  -0.36166  -0.53023    |
 |   283   -0.22222   0.11111   0.50000   |   -0.31320   0.00000   0.53023    |
 |   284    0.11111  -0.22222   0.50000   |    0.15660  -0.27124   0.53023    |
 |   285    0.11111   0.22222  -0.50000   |    0.15660   0.45207  -0.53023    |
 |   286   -0.33333   0.22222   0.50000   |   -0.46981   0.09041   0.53023    |
 |   287    0.11111  -0.33333   0.50000   |    0.15660  -0.45207   0.53023    |
 |   288    0.22222  -0.33333  -0.50000   |    0.31320  -0.36166  -0.53023    |
 |   289   -0.33333   0.11111  -0.50000   |   -0.46981  -0.09041  -0.53023    |
 |   290    0.11111   0.33333  -0.50000   |    0.15660   0.63290  -0.53023    |
 |   291   -0.44444   0.33333   0.50000   |   -0.62641   0.18083   0.53023    |
 |   292    0.11111  -0.44444   0.50000   |    0.15660  -0.63290   0.53023    |
 |   293    0.33333  -0.44444  -0.50000   |    0.46981  -0.45207  -0.53023    |
 |   294   -0.44444   0.11111  -0.50000   |   -0.62641  -0.18083  -0.53023    |
 |   295    0.11111   0.44444  -0.50000   |    0.15660   0.81373  -0.53023    |
 |   296   -0.55556   0.44444   0.50000   |   -0.78301   0.27124   0.53023    |
 |   297   -0.44444   0.22222   0.50000   |   -0.62641   0.00000   0.53023    |
 |   298    0.22222  -0.44444   0.50000   |    0.31320  -0.54249   0.53023    |
 |   299    0.22222   0.33333  -0.50000   |    0.31320   0.72331  -0.53023    |
 |   300   -0.55556   0.33333   0.50000   |   -0.78301   0.09041   0.53023    |
 |   301    0.22222  -0.55556   0.50000   |    0.31320  -0.72331   0.53023    |
 |   302    0.33333  -0.55556  -0.50000   |    0.46981  -0.63290  -0.53023    |
 |   303   -0.55556   0.22222  -0.50000   |   -0.78301  -0.09041  -0.53023    |
 |   304    0.22222  -0.11111  -0.50000   |    0.31320   0.00000  -0.53023    |
 |   305   -0.11111  -0.11111   0.50000   |   -0.15660  -0.27124   0.53023    |
 |   306    0.33333  -0.22222  -0.50000   |    0.46981  -0.09041  -0.53023    |
 |   307   -0.11111  -0.22222   0.50000   |   -0.15660  -0.45207   0.53023    |
 |   308    0.33333  -0.11111   0.50000   |    0.46981   0.09041   0.53023    |
 |   309   -0.22222  -0.11111  -0.50000   |   -0.31320  -0.36166  -0.53023    |
 |   310   -0.11111   0.33333  -0.50000   |   -0.15660   0.45207  -0.53023    |
 |   311    0.44444  -0.33333  -0.50000   |    0.62641  -0.18083  -0.53023    |
 |   312   -0.11111  -0.33333   0.50000   |   -0.15660  -0.63290   0.53023    |
 |   313    0.44444  -0.11111   0.50000   |    0.62641   0.18083   0.53023    |
 |   314   -0.33333  -0.11111  -0.50000   |   -0.46981  -0.45207  -0.53023    |
 |   315   -0.11111   0.44444  -0.50000   |   -0.15660   0.63290  -0.53023    |
 |   316    0.44444  -0.22222  -0.50000   |    0.62641   0.00000  -0.53023    |
 |   317   -0.22222  -0.22222   0.50000   |   -0.31320  -0.54249   0.53023    |
 |   318    0.88889  -0.44444   0.50000   |    1.25282   0.00000   0.53023    |
 |   319   -0.44444   0.88889   0.50000   |   -0.62641   1.08497   0.53023    |
 |   320   -0.44444  -0.33333  -0.50000   |   -0.62641  -0.90414  -0.53023    |
 |   321    0.77778  -0.33333   0.50000   |    1.09621   0.09041   0.53023    |
 |   322   -0.44444   0.77778   0.50000   |   -0.62641   0.90414   0.53023    |
 |   323   -0.33333   0.77778  -0.50000   |   -0.46981   0.99456  -0.53023    |
 |   324    0.77778  -0.44444  -0.50000   |    1.09621  -0.09041  -0.53023    |
 *----------------------------------------------------------------------------*
  
  
 *---------------------------------- MAIN ------------------------------------*
 |  Number of Wannier Functions               :                18             |
 |  Number of Objective Wannier Functions     :                18             |
 |  Number of input Bloch states              :                24             |
 |  Output verbosity (1=low, 5=high)          :                 3             |
 |  Timing Level (1=low, 5=high)              :                 1             |
 |  Optimisation (0=memory, 3=speed)          :                 3             |
 |  Length Unit                               :               Ang             |
 |  Post-processing setup (write *.nnkp)      :                 F             |
 |  Using Gamma-only branch of algorithms     :                 F             |
 |  CP code post-processing                   :                 F             |
 |  Wavefunction (UNK) file-type              :       unformatted             |
 |  Wavefunction spin channel                 :                up             |
 *----------------------------------------------------------------------------*
 *------------------------------- WANNIERISE ---------------------------------*
 |  Total number of iterations                :                20             |
 |  Number of CG steps before reset           :                 5             |
 |  Trial step length for line search         :             2.000             |
 |  Convergence tolerence                     :         0.100E-09             |
 |  Convergence window                        :                20             |
 |  Iterations between writing output         :               100             |
 |  Iterations between backing up to disk     :               100             |
 |  Write r^2_nm to file                      :                 F             |
 |  Write xyz WF centres to file              :                 T             |
 |  Write on-site energies <0n|H|0n> to file  :                 F             |
 |  Use guiding centre to control phases      :                 T             |
 |  Use phases for initial projections        :                 F             |
 |  Iterations before starting guiding centres:                 0             |
 |  Iterations between using guiding centres  :                 1             |
 |  Perform selective localization            :                 F             |
 |  Use constrains in selective localization  :                 F             |
 |  Value of the Lagrange multiplier          :         0.100E+01             |
 *----------------------------------------------------------------------------*
 *------------------------------- DISENTANGLE --------------------------------*
 |  Using band disentanglement                :                 T             |
 |  Total number of iterations                :               200             |
 |  Mixing ratio                              :             0.500             |
 |  Convergence tolerence                     :         1.000E-10             |
 |  Convergence window                        :                 3             |
 *----------------------------------------------------------------------------*
 *-------------------------------- PLOTTING ----------------------------------*
 |  Plotting Wannier functions                :                 F             |
 |   Size of supercell for plotting           :     2x    2x    2             |
 |   Plotting mode (molecule or crystal)      :           crystal             |
 |   Plotting mode for spinor WFs             :             total             |
 |   Include phase for spinor WFs             :                 T             |
 |   Plotting format                          :          xcrysden             |
 |   Plot radius                              :             3.500             |
 |   Plot scale                               :             1.000             |
 *----------------------------------------------------------------------------*
 |  Plotting Fermi surface                    :                 F             |
 |   Number of plotting points (along b_1)    :                50             |
 |   Plotting format                          :          xcrysden             |
 *----------------------------------------------------------------------------*
 |  Plotting interpolated bandstructure       :                 T             |
 |   Number of K-path sections                :                 9             |
 |   Divisions along first K-path section     :               270             |
 |   Output format                            :          xmgrace              |
 |   Output mode                              :               s-k             |
 *----------------------------------------------------------------------------*
 |   K-space path sections:                                                   |
 |    From: G       0.000  0.000  0.000     To: M       0.500  0.000  0.000   |
 |    From: M       0.500  0.000  0.000     To: K       0.333  0.333  0.000   |
 |    From: K       0.333  0.333  0.000     To: G       0.000  0.000  0.000   |
 |    From: G       0.000  0.000  0.000     To: A       0.000  0.000  0.500   |
 |    From: A       0.000  0.000  0.500     To: L       0.500  0.000  0.500   |
 |    From: L       0.500  0.000  0.500     To: H       0.333  0.333  0.500   |
 |    From: H       0.333  0.333  0.500     To: A       0.000  0.000  0.500   |
 |    From: L       0.500  0.000  0.500     To: M       0.500  0.000  0.000   |
 |    From: H       0.333  0.333  0.500     To: K       0.333  0.333  0.000   |
 *----------------------------------------------------------------------------*
 |  Plotting Hamiltonian in WF basis          :                 T             |
 *----------------------------------------------------------------------------*
 |  Writing data for Van der Waals post-proc  :                 F             |
 *----------------------------------------------------------------------------*
 *------------------------------- TRANSPORT ----------------------------------*
 |  Transport mode                            :              bulk             |
 |   Hamiltonian from external files          :                 F             |
 |   System extended in                       :              none             |
 |   Centre of the unit cell to which WF are translated (fract. coords):      |
 |                                       0.000000,    0.000000,    0.000000   |
 |  Fermi energy (eV)                         :             0.000             |
 *----------------------------------------------------------------------------*
 Time to read parameters        0.047 (sec)

 *---------------------------------- K-MESH ----------------------------------*
 +----------------------------------------------------------------------------+
 |                    Distance to Nearest-Neighbour Shells                    |
 |                    ------------------------------------                    |
 |          Shell             Distance (Ang^-1)          Multiplicity         |
 |          -----             -----------------          ------------         |
 |             1                   0.180828                      6            |
 |             2                   0.265113                      2            |
 |             3                   0.313204                      6            |
 |             4                   0.320911                     12            |
 |             5                   0.361657                      6            |
 |             6                   0.410344                     12            |
 |             7                   0.448420                     12            |
 |             8                   0.478427                     12            |
 |             9                   0.530227                      2            |
 |            10                   0.542485                      6            |
 |            11                   0.546971                     24            |
 |            12                   0.560213                     12            |
 |            13                   0.603801                     12            |
 |            14                   0.615822                     12            |
 |            15                   0.626408                      6            |
 |            16                   0.641822                     12            |
 |            17                   0.651986                     12            |
 |            18                   0.680200                     12            |
 |            19                   0.703826                     24            |
 |            20                   0.714166                     24            |
 |            21                   0.723314                      6            |
 |            22                   0.758571                     12            |
 |            23                   0.770369                     12            |
 |            24                   0.788213                     12            |
 |            25                   0.795340                      2            |
 |            26                   0.815637                     12            |
 |            27                   0.820687                     12            |
 |            28                   0.828660                     12            |
 |            29                   0.831603                     24            |
 |            30                   0.840373                     24            |
 |            31                   0.854788                     12            |
 |            32                   0.870036                     24            |
 |            33                   0.873705                     12            |
 |            34                   0.896840                     12            |
 |            35                   0.904142                      6            |
 |            36                   0.928148                     24            |
 +----------------------------------------------------------------------------+
 | The b-vectors are chosen automatically                                     |
 | Shell:  1 Multiplicity:  6                                                 |
 | b-vector 1 :        0.156602    0.090414    0.000000      (Ang^-1)         |
 | b-vector 2 :        0.000000    0.180828    0.000000      (Ang^-1)         |
 | b-vector 3 :       -0.156602    0.090414    0.000000      (Ang^-1)         |
 | b-vector 4 :        0.000000   -0.180828    0.000000      (Ang^-1)         |
 | b-vector 5 :        0.156602   -0.090414    0.000000      (Ang^-1)         |
 | b-vector 6 :       -0.156602   -0.090414    0.000000      (Ang^-1)         |
 | Shell:  1 w_b   10.1940194      (Ang^2)                                    |
 | B1 condition is not satisfied: Adding another shell                        |
 | Shell:  2 Multiplicity:  2                                                 |
 | b-vector 1 :        0.000000    0.000000    0.265113      (Ang^-1)         |
 | b-vector 2 :        0.000000    0.000000   -0.265113      (Ang^-1)         |
 | Shell:  1 w_b   10.1940194      (Ang^2)                                    |
 | Shell:  2 w_b    7.1138874      (Ang^2)                                    |
 | The following shells are used:   1,  2                                     |
 +----------------------------------------------------------------------------+
 |                        Shell   # Nearest-Neighbours                        |
 |                        -----   --------------------                        |
 |                          1               6                                 |
 |                          2               2                                 |
 +----------------------------------------------------------------------------+
 | Completeness relation is fully satisfied [Eq. (B1), PRB 56, 12847 (1997)]  |
 +----------------------------------------------------------------------------+
 |                  b_k Vectors (Ang^-1) and Weights (Ang^2)                  |
 |                  ----------------------------------------                  |
 |            No.         b_k(x)      b_k(y)      b_k(z)        w_b           |
 |            ---        --------------------------------     --------        |
 |             1         0.156602    0.090414    0.000000    10.194019        |
 |             2         0.000000    0.180828    0.000000    10.194019        |
 |             3        -0.156602    0.090414    0.000000    10.194019        |
 |             4         0.000000   -0.180828    0.000000    10.194019        |
 |             5         0.156602   -0.090414    0.000000    10.194019        |
 |             6        -0.156602   -0.090414    0.000000    10.194019        |
 |             7         0.000000    0.000000    0.265113     7.113887        |
 |             8         0.000000    0.000000   -0.265113     7.113887        |
 +----------------------------------------------------------------------------+
 |                           b_k Directions (Ang^-1)                          |
 |                           -----------------------                          |
 |            No.           x           y           z                         |
 |            ---        --------------------------------                     |
 |             1         0.156602    0.090414    0.000000                     |
 |             2         0.000000    0.180828    0.000000                     |
 |             3        -0.156602    0.090414    0.000000                     |
 |             4         0.000000    0.000000    0.265113                     |
 +----------------------------------------------------------------------------+
  
 Time to get kmesh              0.239 (sec)
 *============================================================================*
 |                              MEMORY ESTIMATE                               |
 |         Maximum RAM allocated during each phase of the calculation         |
 *============================================================================*
 |                        Disentanglement           41.79 Mb                  |
 |                            Wannierise:           36.17 Mb                  |
 |                                                                            |
 |   N.B. by setting optimisation=0 memory usage will be reduced to:          |
 |                        Disentanglement           34.71 Mb                  |
 |                            Wannierise:           23.36 Mb                  |
 |   However, this will result in more i/o and slow down the calculation      |
 |                          plot_wannier:           36.17 Mb                  |
 *----------------------------------------------------------------------------*
  
 Starting a new Wannier90 calculation ...


 Reading overlaps from wannier90.mmn    : File generated by VASP: unknown system

 Reading projections from wannier90.amn : File generated by VASP: unknown system

 Time to read overlaps          1.053 (sec)

 *------------------------------- DISENTANGLE --------------------------------*
 +----------------------------------------------------------------------------+
 |                              Energy  Windows                               |
 |                              ---------------                               |
 |                   Outer:   -5.90344  to    5.63301  (eV)                   |
 |                   Inner:   -3.43767  to    3.20913  (eV)                   |
 +----------------------------------------------------------------------------+
 |                        K-points with Frozen States                         |
 |                        ---------------------------                         |
 |     1     2     3     4     5     6     7     8     9    10    11    12    |
 |    13    14    15    16    17    18    19    20    21    22    23    24    |
 |    25    26    27    28    29    30    31    32    33    34    35    36    |
 |    37    38    39    40    41    42    43    44    45    46    47    48    |
 |    49    50    51    52    53    54    55    56    57    58    59    60    |
 |    61    62    63    64    65    66    67    68    69    70    71    72    |
 |    73    74    75    76    77    78    79    80    81    82    83    84    |
 |    85    86    87    88    89    90    91    92    93    94    95    96    |
 |    97    98    99   100   101   102   103   104   105   106   107   108    |
 |   109   110   111   112   113   114   115   116   117   118   119   120    |
 |   121   122   123   124   125   126   127   128   129   130   131   132    |
 |   133   134   135   136   137   138   139   140   141   142   143   144    |
 |   145   146   147   148   149   150   151   152   153   154   155   156    |
 |   157   158   159   160   161   162   163   164   165   166   167   168    |
 |   169   170   171   172   173   174   175   176   177   178   179   180    |
 |   181   182   183   184   185   186   187   188   189   190   191   192    |
 |   193   194   195   196   197   198   199   200   201   202   203   204    |
 |   205   206   207   208   209   210   211   212   213   214   215   216    |
 |   217   218   219   220   221   222   223   224   225   226   227   228    |
 |   229   230   231   232   233   234   235   236   237   238   239   240    |
 |   241   242   243   244   245   246   247   248   249   250   251   252    |
 |   253   254   255   256   257   258   259   260   261   262   263   264    |
 |   265   266   267   268   269   270   271   272   273   274   275   276    |
 |   277   278   279   280   281   282   283   284   285   286   287   288    |
 |   289   290   291   292   293   294   295   296   297   298   299   300    |
 |   301   302   303   304   305   306   307   308   309   310   311   312    |
 |   313   314   315   316   317   318   319   320   321   322   323   324    |
 +----------------------------------------------------------------------------+
   Number of target bands to extract:   18
 +----------------------------------------------------------------------------+
 |                                  Windows                                   |
 |                                  -------                                   |
 |               K-point      Ndimwin     Ndimfroz    Nfirstwin               |
 |               ----------------------------------------------               |
 |                   1           22           18           1                  |
 |                   2           22           15           1                  |
 |                   3           22           13           1                  |
 |                   4           20           12           1                  |
 |                   5           20           11           1                  |
 |                   6           22           14           1                  |
 |                   7           22           14           1                  |
 |                   8           20           12           1                  |
 |                   9           20            8           1                  |
 |                  10           22           13           1                  |
 |                  11           22           12           1                  |
 |                  12           22           14           1                  |
 |                  13           20           14           1                  |
 |                  14           22           14           1                  |
 |                  15           20           12           1                  |
 |                  16           22           13           1                  |
 |                  17           20            8           1                  |
 |                  18           22           12           1                  |
 |                  19           20           14           1                  |
 |                  20           22           16           1                  |
 |                  21           24           14           1                  |
 |                  22           20           14           1                  |
 |                  23           20           12           1                  |
 |                  24           20           12           1                  |
 |                  25           20           12           1                  |
 |                  26           22           13           1                  |
 |                  27           24           14           1                  |
 |                  28           24           16           1                  |
 |                  29           22           14           1                  |
 |                  30           22           13           1                  |
 |                  31           20           12           1                  |
 |                  32           20           12           1                  |
 |                  33           22           12           1                  |
 |                  34           22           14           1                  |
 |                  35           22           12           1                  |
 |                  36           20           12           1                  |
 |                  37           22           12           1                  |
 |                  38           22           14           1                  |
 |                  39           22           12           1                  |
 |                  40           22           13           1                  |
 |                  41           22           14           1                  |
 |                  42           20           12           1                  |
 |                  43           22           12           1                  |
 |                  44           22           12           1                  |
 |                  45           20           12           1                  |
 |                  46           20           12           1                  |
 |                  47           22           12           1                  |
 |                  48           22           12           1                  |
 |                  49           24           16           1                  |
 |                  50           24           16           1                  |
 |                  51           22           14           1                  |
 |                  52           22           12           1                  |
 |                  53           22           12           1                  |
 |                  54           22           15           1                  |
 |                  55           22           12           1                  |
 |                  56           22           12           1                  |
 |                  57           22           12           1                  |
 |                  58           22           12           1                  |
 |                  59           20           12           1                  |
 |                  60           22           15           1                  |
 |                  61           18           12           1                  |
 |                  62           22           12           1                  |
 |                  63           22           12           1                  |
 |                  64           22           12           1                  |
 |                  65           22           12           1                  |
 |                  66           20           12           1                  |
 |                  67           18           12           1                  |
 |                  68           22           15           1                  |
 |                  69           22           15           1                  |
 |                  70           22           15           1                  |
 |                  71           22           15           1                  |
 |                  72           22           15           1                  |
 |                  73           22           13           1                  |
 |                  74           22           13           1                  |
 |                  75           22           13           1                  |
 |                  76           22           13           1                  |
 |                  77           22           13           1                  |
 |                  78           20           12           1                  |
 |                  79           20           12           1                  |
 |                  80           20           12           1                  |
 |                  81           20           12           1                  |
 |                  82           20           12           1                  |
 |                  83           20           11           1                  |
 |                  84           20           11           1                  |
 |                  85           20           11           1                  |
 |                  86           20           11           1                  |
 |                  87           20           11           1                  |
 |                  88           22           14           1                  |
 |                  89           22           14           1                  |
 |                  90           22           14           1                  |
 |                  91           22           14           1                  |
 |                  92           22           14           1                  |
 |                  93           22           14           1                  |
 |                  94           22           14           1                  |
 |                  95           20           12           1                  |
 |                  96           20           12           1                  |
 |                  97           20           12           1                  |
 |                  98           20           12           1                  |
 |                  99           20           12           1                  |
 |                 100           20            8           1                  |
 |                 101           20            8           1                  |
 |                 102           22           13           1                  |
 |                 103           22           13           1                  |
 |                 104           22           12           1                  |
 |                 105           22           12           1                  |
 |                 106           22           12           1                  |
 |                 107           22           12           1                  |
 |                 108           22           12           1                  |
 |                 109           22           14           1                  |
 |                 110           22           14           1                  |
 |                 111           22           14           1                  |
 |                 112           22           14           1                  |
 |                 113           22           14           1                  |
 |                 114           22           14           1                  |
 |                 115           22           14           1                  |
 |                 116           20           12           1                  |
 |                 117           20           12           1                  |
 |                 118           20           12           1                  |
 |                 119           20           12           1                  |
 |                 120           20           12           1                  |
 |                 121           22           13           1                  |
 |                 122           22           13           1                  |
 |                 123           20            8           1                  |
 |                 124           20            8           1                  |
 |                 125           22           12           1                  |
 |                 126           22           12           1                  |
 |                 127           22           12           1                  |
 |                 128           22           12           1                  |
 |                 129           22           12           1                  |
 |                 130           22           16           1                  |
 |                 131           24           14           1                  |
 |                 132           24           14           1                  |
 |                 133           24           14           1                  |
 |                 134           24           14           1                  |
 |                 135           24           14           1                  |
 |                 136           20           14           1                  |
 |                 137           20           14           1                  |
 |                 138           20           14           1                  |
 |                 139           20           14           1                  |
 |                 140           20           14           1                  |
 |                 141           20           12           1                  |
 |                 142           20           12           1                  |
 |                 143           20           12           1                  |
 |                 144           20           12           1                  |
 |                 145           20           12           1                  |
 |                 146           20           12           1                  |
 |                 147           20           12           1                  |
 |                 148           20           12           1                  |
 |                 149           20           12           1                  |
 |                 150           20           12           1                  |
 |                 151           20           12           1                  |
 |                 152           20           12           1                  |
 |                 153           20           12           1                  |
 |                 154           20           12           1                  |
 |                 155           20           12           1                  |
 |                 156           22           13           1                  |
 |                 157           22           13           1                  |
 |                 158           22           13           1                  |
 |                 159           22           13           1                  |
 |                 160           22           13           1                  |
 |                 161           24           14           1                  |
 |                 162           24           14           1                  |
 |                 163           24           14           1                  |
 |                 164           24           14           1                  |
 |                 165           24           14           1                  |
 |                 166           24           16           1                  |
 |                 167           24           16           1                  |
 |                 168           24           16           1                  |
 |                 169           24           16           1                  |
 |                 170           24           16           1                  |
 |                 171           22           14           1                  |
 |                 172           22           14           1                  |
 |                 173           22           14           1                  |
 |                 174           22           14           1                  |
 |                 175           22           14           1                  |
 |                 176           22           13           1                  |
 |                 177           22           13           1                  |
 |                 178           22           13           1                  |
 |                 179           22           13           1                  |
 |                 180           22           13           1                  |
 |                 181           20           12           1                  |
 |                 182           20           12           1                  |
 |                 183           20           12           1                  |
 |                 184           20           12           1                  |
 |                 185           20           12           1                  |
 |                 186           20           12           1                  |
 |                 187           20           12           1                  |
 |                 188           20           12           1                  |
 |                 189           20           12           1                  |
 |                 190           20           12           1                  |
 |                 191           22           12           1                  |
 |                 192           22           12           1                  |
 |                 193           22           12           1                  |
 |                 194           22           12           1                  |
 |                 195           22           12           1                  |
 |                 196           22           14           1                  |
 |                 197           22           14           1                  |
 |                 198           22           14           1                  |
 |                 199           22           14           1                  |
 |                 200           22           14           1                  |
 |                 201           22           12           1                  |
 |                 202           22           12           1                  |
 |                 203           22           12           1                  |
 |                 204           22           12           1                  |
 |                 205           22           12           1                  |
 |                 206           20           12           1                  |
 |                 207           20           12           1                  |
 |                 208           20           12           1                  |
 |                 209           20           12           1                  |
 |                 210           20           12           1                  |
 |                 211           22           12           1                  |
 |                 212           22           12           1                  |
 |                 213           22           12           1                  |
 |                 214           22           12           1                  |
 |                 215           22           12           1                  |
 |                 216           22           14           1                  |
 |                 217           22           14           1                  |
 |                 218           22           14           1                  |
 |                 219           22           14           1                  |
 |                 220           22           14           1                  |
 |                 221           22           12           1                  |
 |                 222           22           13           1                  |
 |                 223           22           13           1                  |
 |                 224           22           13           1                  |
 |                 225           22           13           1                  |
 |                 226           22           13           1                  |
 |                 227           22           14           1                  |
 |                 228           22           14           1                  |
 |                 229           22           14           1                  |
 |                 230           22           14           1                  |
 |                 231           22           14           1                  |
 |                 232           20           12           1                  |
 |                 233           20           12           1                  |
 |                 234           20           12           1                  |
 |                 235           20           12           1                  |
 |                 236           20           12           1                  |
 |                 237           22           12           1                  |
 |                 238           22           12           1                  |
 |                 239           22           12           1                  |
 |                 240           22           12           1                  |
 |                 241           22           12           1                  |
 |                 242           22           12           1                  |
 |                 243           22           12           1                  |
 |                 244           22           12           1                  |
 |                 245           22           12           1                  |
 |                 246           22           12           1                  |
 |                 247           20           12           1                  |
 |                 248           20           12           1                  |
 |                 249           20           12           1                  |
 |                 250           20           12           1                  |
 |                 251           20           12           1                  |
 |                 252           20           12           1                  |
 |                 253           20           12           1                  |
 |                 254           20           12           1                  |
 |                 255           20           12           1                  |
 |                 256           20           12           1                  |
 |                 257           22           12           1                  |
 |                 258           22           12           1                  |
 |                 259           22           12           1                  |
 |                 260           22           12           1                  |
 |                 261           22           12           1                  |
 |                 262           22           12           1                  |
 |                 263           24           16           1                  |
 |                 264           24           16           1                  |
 |                 265           24           16           1                  |
 |                 266           24           16           1                  |
 |                 267           24           16           1                  |
 |                 268           22           14           1                  |
 |                 269           22           14           1                  |
 |                 270           22           14           1                  |
 |                 271           22           14           1                  |
 |                 272           22           14           1                  |
 |                 273           22           12           1                  |
 |                 274           22           12           1                  |
 |                 275           22           12           1                  |
 |                 276           22           12           1                  |
 |                 277           22           12           1                  |
 |                 278           22           12           1                  |
 |                 279           22           12           1                  |
 |                 280           22           12           1                  |
 |                 281           22           12           1                  |
 |                 282           22           12           1                  |
 |                 283           22           15           1                  |
 |                 284           22           15           1                  |
 |                 285           22           12           1                  |
 |                 286           22           12           1                  |
 |                 287           22           12           1                  |
 |                 288           22           12           1                  |
 |                 289           22           12           1                  |
 |                 290           22           12           1                  |
 |                 291           22           12           1                  |
 |                 292           22           12           1                  |
 |                 293           22           12           1                  |
 |                 294           22           12           1                  |
 |                 295           22           12           1                  |
 |                 296           22           12           1                  |
 |                 297           22           12           1                  |
 |                 298           22           12           1                  |
 |                 299           20           12           1                  |
 |                 300           20           12           1                  |
 |                 301           20           12           1                  |
 |                 302           20           12           1                  |
 |                 303           20           12           1                  |
 |                 304           22           15           1                  |
 |                 305           22           15           1                  |
 |                 306           22           12           1                  |
 |                 307           22           12           1                  |
 |                 308           22           12           1                  |
 |                 309           22           12           1                  |
 |                 310           22           12           1                  |
 |                 311           22           12           1                  |
 |                 312           22           12           1                  |
 |                 313           22           12           1                  |
 |                 314           22           12           1                  |
 |                 315           22           12           1                  |
 |                 316           22           12           1                  |
 |                 317           22           12           1                  |
 |                 318           22           12           1                  |
 |                 319           22           12           1                  |
 |                 320           20           12           1                  |
 |                 321           20           12           1                  |
 |                 322           20           12           1                  |
 |                 323           20           12           1                  |
 |                 324           20           12           1                  |
 +----------------------------------------------------------------------------+

                   Unitarised projection of Wannier functions                  
                   ------------------------------------------                  
   A_mn = <psi_m|g_n> --> S = A.A^+ --> U = S^-1/2.A
   In dis_project... done
   Using an inner window (linner = T)
   In dis_proj_froz...
 K-point   2 ndimwin:  22 we want the  3 leading eigenvector(s) of QPQ
  lambda(  1)= -0.000000000000
  lambda(  2)= -0.000000000000
  lambda(  3)= -0.000000000000
  lambda(  4)= -0.000000000000
  lambda(  5)= -0.000000000000
[...]
                   324     7      -1.657459      1.00000000
                   324     8      -1.573930      1.00000000
                   324     9      -0.986127      1.00000000
                   324    10      -0.949274      1.00000000
                   324    11      -0.344250      1.00000000
                   324    12      -0.269793      1.00000000
                   324    13       0.514684      1.00000000
                   324    14       0.594888      1.00000000
                   324    15       1.484779      1.00000000
                   324    16       1.518796      1.00000000
                   324    17       1.895247      1.00000000
                   324    18       1.924998      1.00000000
                   324    19       4.966636      0.00044930
                   324    20       4.990740      0.00054050
 ------------------------------------------------------------------------------

 Time for wannierise            2.436 (sec)

 Writing checkpoint file wannier90.chk... done

 *---------------------------------------------------------------------------*
 |                               PLOTTING                                    |
 *---------------------------------------------------------------------------*
 
  415 lattice points in Wigner-Seitz supercell:

      vector  -5  -3  -2   degeneracy:  2
      vector  -5  -3  -1   degeneracy:  1
      vector  -5  -3   0   degeneracy:  1
      vector  -5  -3   1   degeneracy:  1
      vector  -5  -3   2   degeneracy:  2
      vector  -5  -2  -2   degeneracy:  2
      vector  -5  -2  -1   degeneracy:  1
      vector  -5  -2   0   degeneracy:  1
      vector  -5  -2   1   degeneracy:  1
      vector  -5  -2   2   degeneracy:  2
      vector  -5  -1  -2   degeneracy:  4
      vector  -5  -1  -1   degeneracy:  2
      vector  -5  -1   0   degeneracy:  2
      vector  -5  -1   1   degeneracy:  2
      vector  -5  -1   2   degeneracy:  4
      vector  -4  -5  -2   degeneracy:  2
      vector  -4  -5  -1   degeneracy:  1
      vector  -4  -5   0   degeneracy:  1
      vector  -4  -5   1   degeneracy:  1
      vector  -4  -5   2   degeneracy:  2
      vector  -4  -4  -2   degeneracy:  2
      vector  -4  -4  -1   degeneracy:  1
      vector  -4  -4   0   degeneracy:  1
      vector  -4  -4   1   degeneracy:  1
      vector  -4  -4   2   degeneracy:  2
      vector  -4  -3  -2   degeneracy:  2
      vector  -4  -3  -1   degeneracy:  1
      vector  -4  -3   0   degeneracy:  1
      vector  -4  -3   1   degeneracy:  1
      vector  -4  -3   2   degeneracy:  2
      vector  -4  -2  -2   degeneracy:  2
      vector  -4  -2  -1   degeneracy:  1
      vector  -4  -2   0   degeneracy:  1
      vector  -4  -2   1   degeneracy:  1
      vector  -4  -2   2   degeneracy:  2
      vector  -4  -1  -2   degeneracy:  2
      vector  -4  -1  -1   degeneracy:  1
      vector  -4  -1   0   degeneracy:  1
      vector  -4  -1   1   degeneracy:  1
      vector  -4  -1   2   degeneracy:  2
      vector  -4   0  -2   degeneracy:  2
      vector  -4   0  -1   degeneracy:  1
      vector  -4   0   0   degeneracy:  1
      vector  -4   0   1   degeneracy:  1
      vector  -4   0   2   degeneracy:  2
      vector  -4   1  -2   degeneracy:  4
      vector  -4   1  -1   degeneracy:  2
      vector  -4   1   0   degeneracy:  2
      vector  -4   1   1   degeneracy:  2
      vector  -4   1   2   degeneracy:  4
      vector  -3  -6  -2   degeneracy:  2
      vector  -3  -6  -1   degeneracy:  1
      vector  -3  -6   0   degeneracy:  1
      vector  -3  -6   1   degeneracy:  1
      vector  -3  -6   2   degeneracy:  2
      vector  -3  -5  -2   degeneracy:  2
      vector  -3  -5  -1   degeneracy:  1
      vector  -3  -5   0   degeneracy:  1
      vector  -3  -5   1   degeneracy:  1
      vector  -3  -5   2   degeneracy:  2
      vector  -3  -4  -2   degeneracy:  2
      vector  -3  -4  -1   degeneracy:  1
      vector  -3  -4   0   degeneracy:  1
      vector  -3  -4   1   degeneracy:  1
      vector  -3  -4   2   degeneracy:  2
      vector  -3  -3  -2   degeneracy:  2
      vector  -3  -3  -1   degeneracy:  1
      vector  -3  -3   0   degeneracy:  1
      vector  -3  -3   1   degeneracy:  1
      vector  -3  -3   2   degeneracy:  2
      vector  -3  -2  -2   degeneracy:  2
      vector  -3  -2  -1   degeneracy:  1
      vector  -3  -2   0   degeneracy:  1
      vector  -3  -2   1   degeneracy:  1
      vector  -3  -2   2   degeneracy:  2
      vector  -3  -1  -2   degeneracy:  2
      vector  -3  -1  -1   degeneracy:  1
      vector  -3  -1   0   degeneracy:  1
      vector  -3  -1   1   degeneracy:  1
      vector  -3  -1   2   degeneracy:  2
      vector  -3   0  -2   degeneracy:  2
      vector  -3   0  -1   degeneracy:  1
      vector  -3   0   0   degeneracy:  1
      vector  -3   0   1   degeneracy:  1
      vector  -3   0   2   degeneracy:  2
      vector  -3   1  -2   degeneracy:  2
      vector  -3   1  -1   degeneracy:  1
      vector  -3   1   0   degeneracy:  1
      vector  -3   1   1   degeneracy:  1
      vector  -3   1   2   degeneracy:  2
      vector  -3   2  -2   degeneracy:  2
      vector  -3   2  -1   degeneracy:  1
      vector  -3   2   0   degeneracy:  1
      vector  -3   2   1   degeneracy:  1
      vector  -3   2   2   degeneracy:  2
      vector  -2  -5  -2   degeneracy:  2
      vector  -2  -5  -1   degeneracy:  1
      vector  -2  -5   0   degeneracy:  1
      vector  -2  -5   1   degeneracy:  1
      vector  -2  -5   2   degeneracy:  2
      vector  -2  -4  -2   degeneracy:  2
      vector  -2  -4  -1   degeneracy:  1
      vector  -2  -4   0   degeneracy:  1
      vector  -2  -4   1   degeneracy:  1
      vector  -2  -4   2   degeneracy:  2
      vector  -2  -3  -2   degeneracy:  2
      vector  -2  -3  -1   degeneracy:  1
      vector  -2  -3   0   degeneracy:  1
      vector  -2  -3   1   degeneracy:  1
      vector  -2  -3   2   degeneracy:  2
      vector  -2  -2  -2   degeneracy:  2
      vector  -2  -2  -1   degeneracy:  1
      vector  -2  -2   0   degeneracy:  1
      vector  -2  -2   1   degeneracy:  1
      vector  -2  -2   2   degeneracy:  2
      vector  -2  -1  -2   degeneracy:  2
      vector  -2  -1  -1   degeneracy:  1
      vector  -2  -1   0   degeneracy:  1
      vector  -2  -1   1   degeneracy:  1
      vector  -2  -1   2   degeneracy:  2
      vector  -2   0  -2   degeneracy:  2
      vector  -2   0  -1   degeneracy:  1
      vector  -2   0   0   degeneracy:  1
      vector  -2   0   1   degeneracy:  1
      vector  -2   0   2   degeneracy:  2
      vector  -2   1  -2   degeneracy:  2
      vector  -2   1  -1   degeneracy:  1
      vector  -2   1   0   degeneracy:  1
      vector  -2   1   1   degeneracy:  1
      vector  -2   1   2   degeneracy:  2
      vector  -2   2  -2   degeneracy:  2
      vector  -2   2  -1   degeneracy:  1
      vector  -2   2   0   degeneracy:  1
      vector  -2   2   1   degeneracy:  1
      vector  -2   2   2   degeneracy:  2
      vector  -2   3  -2   degeneracy:  2
      vector  -2   3  -1   degeneracy:  1
      vector  -2   3   0   degeneracy:  1
      vector  -2   3   1   degeneracy:  1
      vector  -2   3   2   degeneracy:  2
      vector  -1  -5  -2   degeneracy:  2
      vector  -1  -5  -1   degeneracy:  1
      vector  -1  -5   0   degeneracy:  1
      vector  -1  -5   1   degeneracy:  1
      vector  -1  -5   2   degeneracy:  2
      vector  -1  -4  -2   degeneracy:  2
      vector  -1  -4  -1   degeneracy:  1
      vector  -1  -4   0   degeneracy:  1
      vector  -1  -4   1   degeneracy:  1
      vector  -1  -4   2   degeneracy:  2
      vector  -1  -3  -2   degeneracy:  2
      vector  -1  -3  -1   degeneracy:  1
      vector  -1  -3   0   degeneracy:  1
      vector  -1  -3   1   degeneracy:  1
      vector  -1  -3   2   degeneracy:  2
      vector  -1  -2  -2   degeneracy:  2
      vector  -1  -2  -1   degeneracy:  1
      vector  -1  -2   0   degeneracy:  1
      vector  -1  -2   1   degeneracy:  1
      vector  -1  -2   2   degeneracy:  2
      vector  -1  -1  -2   degeneracy:  2
      vector  -1  -1  -1   degeneracy:  1
      vector  -1  -1   0   degeneracy:  1
      vector  -1  -1   1   degeneracy:  1
      vector  -1  -1   2   degeneracy:  2
      vector  -1   0  -2   degeneracy:  2
      vector  -1   0  -1   degeneracy:  1
      vector  -1   0   0   degeneracy:  1
      vector  -1   0   1   degeneracy:  1
      vector  -1   0   2   degeneracy:  2
      vector  -1   1  -2   degeneracy:  2
      vector  -1   1  -1   degeneracy:  1
      vector  -1   1   0   degeneracy:  1
      vector  -1   1   1   degeneracy:  1
      vector  -1   1   2   degeneracy:  2
      vector  -1   2  -2   degeneracy:  2
      vector  -1   2  -1   degeneracy:  1
      vector  -1   2   0   degeneracy:  1
      vector  -1   2   1   degeneracy:  1
      vector  -1   2   2   degeneracy:  2
      vector  -1   3  -2   degeneracy:  2
      vector  -1   3  -1   degeneracy:  1
      vector  -1   3   0   degeneracy:  1
      vector  -1   3   1   degeneracy:  1
      vector  -1   3   2   degeneracy:  2
      vector   0  -4  -2   degeneracy:  2
      vector   0  -4  -1   degeneracy:  1
      vector   0  -4   0   degeneracy:  1
      vector   0  -4   1   degeneracy:  1
      vector   0  -4   2   degeneracy:  2
      vector   0  -3  -2   degeneracy:  2
      vector   0  -3  -1   degeneracy:  1
      vector   0  -3   0   degeneracy:  1
      vector   0  -3   1   degeneracy:  1
      vector   0  -3   2   degeneracy:  2
      vector   0  -2  -2   degeneracy:  2
      vector   0  -2  -1   degeneracy:  1
      vector   0  -2   0   degeneracy:  1
      vector   0  -2   1   degeneracy:  1
      vector   0  -2   2   degeneracy:  2
      vector   0  -1  -2   degeneracy:  2
      vector   0  -1  -1   degeneracy:  1
      vector   0  -1   0   degeneracy:  1
      vector   0  -1   1   degeneracy:  1
      vector   0  -1   2   degeneracy:  2
      vector   0   0  -2   degeneracy:  2
      vector   0   0  -1   degeneracy:  1
      vector   0   0   0   degeneracy:  1
      vector   0   0   1   degeneracy:  1
      vector   0   0   2   degeneracy:  2
      vector   0   1  -2   degeneracy:  2
      vector   0   1  -1   degeneracy:  1
      vector   0   1   0   degeneracy:  1
      vector   0   1   1   degeneracy:  1
      vector   0   1   2   degeneracy:  2
      vector   0   2  -2   degeneracy:  2
      vector   0   2  -1   degeneracy:  1
      vector   0   2   0   degeneracy:  1
      vector   0   2   1   degeneracy:  1
      vector   0   2   2   degeneracy:  2
      vector   0   3  -2   degeneracy:  2
      vector   0   3  -1   degeneracy:  1
      vector   0   3   0   degeneracy:  1
      vector   0   3   1   degeneracy:  1
      vector   0   3   2   degeneracy:  2
      vector   0   4  -2   degeneracy:  2
      vector   0   4  -1   degeneracy:  1
      vector   0   4   0   degeneracy:  1
      vector   0   4   1   degeneracy:  1
      vector   0   4   2   degeneracy:  2
      vector   1  -3  -2   degeneracy:  2
      vector   1  -3  -1   degeneracy:  1
      vector   1  -3   0   degeneracy:  1
      vector   1  -3   1   degeneracy:  1
      vector   1  -3   2   degeneracy:  2
      vector   1  -2  -2   degeneracy:  2
      vector   1  -2  -1   degeneracy:  1
      vector   1  -2   0   degeneracy:  1
      vector   1  -2   1   degeneracy:  1
      vector   1  -2   2   degeneracy:  2
      vector   1  -1  -2   degeneracy:  2
      vector   1  -1  -1   degeneracy:  1
      vector   1  -1   0   degeneracy:  1
      vector   1  -1   1   degeneracy:  1
      vector   1  -1   2   degeneracy:  2
      vector   1   0  -2   degeneracy:  2
      vector   1   0  -1   degeneracy:  1
      vector   1   0   0   degeneracy:  1
      vector   1   0   1   degeneracy:  1
      vector   1   0   2   degeneracy:  2
      vector   1   1  -2   degeneracy:  2
      vector   1   1  -1   degeneracy:  1
      vector   1   1   0   degeneracy:  1
      vector   1   1   1   degeneracy:  1
      vector   1   1   2   degeneracy:  2
      vector   1   2  -2   degeneracy:  2
      vector   1   2  -1   degeneracy:  1
      vector   1   2   0   degeneracy:  1
      vector   1   2   1   degeneracy:  1
      vector   1   2   2   degeneracy:  2
      vector   1   3  -2   degeneracy:  2
      vector   1   3  -1   degeneracy:  1
      vector   1   3   0   degeneracy:  1
      vector   1   3   1   degeneracy:  1
      vector   1   3   2   degeneracy:  2
      vector   1   4  -2   degeneracy:  2
      vector   1   4  -1   degeneracy:  1
      vector   1   4   0   degeneracy:  1
      vector   1   4   1   degeneracy:  1
      vector   1   4   2   degeneracy:  2
      vector   1   5  -2   degeneracy:  2
      vector   1   5  -1   degeneracy:  1
      vector   1   5   0   degeneracy:  1
      vector   1   5   1   degeneracy:  1
      vector   1   5   2   degeneracy:  2
      vector   2  -3  -2   degeneracy:  2
      vector   2  -3  -1   degeneracy:  1
      vector   2  -3   0   degeneracy:  1
      vector   2  -3   1   degeneracy:  1
      vector   2  -3   2   degeneracy:  2
      vector   2  -2  -2   degeneracy:  2
      vector   2  -2  -1   degeneracy:  1
      vector   2  -2   0   degeneracy:  1
      vector   2  -2   1   degeneracy:  1
      vector   2  -2   2   degeneracy:  2
      vector   2  -1  -2   degeneracy:  2
      vector   2  -1  -1   degeneracy:  1
      vector   2  -1   0   degeneracy:  1
      vector   2  -1   1   degeneracy:  1
      vector   2  -1   2   degeneracy:  2
      vector   2   0  -2   degeneracy:  2
      vector   2   0  -1   degeneracy:  1
      vector   2   0   0   degeneracy:  1
      vector   2   0   1   degeneracy:  1
      vector   2   0   2   degeneracy:  2
      vector   2   1  -2   degeneracy:  2
      vector   2   1  -1   degeneracy:  1
      vector   2   1   0   degeneracy:  1
      vector   2   1   1   degeneracy:  1
      vector   2   1   2   degeneracy:  2
      vector   2   2  -2   degeneracy:  2
      vector   2   2  -1   degeneracy:  1
      vector   2   2   0   degeneracy:  1
      vector   2   2   1   degeneracy:  1
      vector   2   2   2   degeneracy:  2
      vector   2   3  -2   degeneracy:  2
      vector   2   3  -1   degeneracy:  1
      vector   2   3   0   degeneracy:  1
      vector   2   3   1   degeneracy:  1
      vector   2   3   2   degeneracy:  2
      vector   2   4  -2   degeneracy:  2
      vector   2   4  -1   degeneracy:  1
      vector   2   4   0   degeneracy:  1
      vector   2   4   1   degeneracy:  1
      vector   2   4   2   degeneracy:  2
      vector   2   5  -2   degeneracy:  2
      vector   2   5  -1   degeneracy:  1
      vector   2   5   0   degeneracy:  1
      vector   2   5   1   degeneracy:  1
      vector   2   5   2   degeneracy:  2
      vector   3  -2  -2   degeneracy:  2
      vector   3  -2  -1   degeneracy:  1
      vector   3  -2   0   degeneracy:  1
      vector   3  -2   1   degeneracy:  1
      vector   3  -2   2   degeneracy:  2
      vector   3  -1  -2   degeneracy:  2
      vector   3  -1  -1   degeneracy:  1
      vector   3  -1   0   degeneracy:  1
      vector   3  -1   1   degeneracy:  1
      vector   3  -1   2   degeneracy:  2
      vector   3   0  -2   degeneracy:  2
      vector   3   0  -1   degeneracy:  1
      vector   3   0   0   degeneracy:  1
      vector   3   0   1   degeneracy:  1
      vector   3   0   2   degeneracy:  2
      vector   3   1  -2   degeneracy:  2
      vector   3   1  -1   degeneracy:  1
      vector   3   1   0   degeneracy:  1
      vector   3   1   1   degeneracy:  1
      vector   3   1   2   degeneracy:  2
      vector   3   2  -2   degeneracy:  2
      vector   3   2  -1   degeneracy:  1
      vector   3   2   0   degeneracy:  1
      vector   3   2   1   degeneracy:  1
      vector   3   2   2   degeneracy:  2
      vector   3   3  -2   degeneracy:  2
      vector   3   3  -1   degeneracy:  1
      vector   3   3   0   degeneracy:  1
      vector   3   3   1   degeneracy:  1
      vector   3   3   2   degeneracy:  2
      vector   3   4  -2   degeneracy:  2
      vector   3   4  -1   degeneracy:  1
      vector   3   4   0   degeneracy:  1
      vector   3   4   1   degeneracy:  1
      vector   3   4   2   degeneracy:  2
      vector   3   5  -2   degeneracy:  2
      vector   3   5  -1   degeneracy:  1
      vector   3   5   0   degeneracy:  1
      vector   3   5   1   degeneracy:  1
      vector   3   5   2   degeneracy:  2
      vector   3   6  -2   degeneracy:  2
      vector   3   6  -1   degeneracy:  1
      vector   3   6   0   degeneracy:  1
      vector   3   6   1   degeneracy:  1
      vector   3   6   2   degeneracy:  2
      vector   4  -1  -2   degeneracy:  4
      vector   4  -1  -1   degeneracy:  2
      vector   4  -1   0   degeneracy:  2
      vector   4  -1   1   degeneracy:  2
      vector   4  -1   2   degeneracy:  4
      vector   4   0  -2   degeneracy:  2
      vector   4   0  -1   degeneracy:  1
      vector   4   0   0   degeneracy:  1
      vector   4   0   1   degeneracy:  1
      vector   4   0   2   degeneracy:  2
      vector   4   1  -2   degeneracy:  2
      vector   4   1  -1   degeneracy:  1
      vector   4   1   0   degeneracy:  1
      vector   4   1   1   degeneracy:  1
      vector   4   1   2   degeneracy:  2
      vector   4   2  -2   degeneracy:  2
      vector   4   2  -1   degeneracy:  1
      vector   4   2   0   degeneracy:  1
      vector   4   2   1   degeneracy:  1
      vector   4   2   2   degeneracy:  2
      vector   4   3  -2   degeneracy:  2
      vector   4   3  -1   degeneracy:  1
      vector   4   3   0   degeneracy:  1
      vector   4   3   1   degeneracy:  1
      vector   4   3   2   degeneracy:  2
      vector   4   4  -2   degeneracy:  2
      vector   4   4  -1   degeneracy:  1
      vector   4   4   0   degeneracy:  1
      vector   4   4   1   degeneracy:  1
      vector   4   4   2   degeneracy:  2
      vector   4   5  -2   degeneracy:  2
      vector   4   5  -1   degeneracy:  1
      vector   4   5   0   degeneracy:  1
      vector   4   5   1   degeneracy:  1
      vector   4   5   2   degeneracy:  2
      vector   5   1  -2   degeneracy:  4
      vector   5   1  -1   degeneracy:  2
      vector   5   1   0   degeneracy:  2
      vector   5   1   1   degeneracy:  2
      vector   5   1   2   degeneracy:  4
      vector   5   2  -2   degeneracy:  2
      vector   5   2  -1   degeneracy:  1
      vector   5   2   0   degeneracy:  1
      vector   5   2   1   degeneracy:  1
      vector   5   2   2   degeneracy:  2
      vector   5   3  -2   degeneracy:  2
      vector   5   3  -1   degeneracy:  1
      vector   5   3   0   degeneracy:  1
      vector   5   3   1   degeneracy:  1
      vector   5   3   2   degeneracy:  2
  tot =      324.000
  mp_grid product =          324
 
 Calculating interpolated band-structure
 
 Time to calculate interpolated band structure       0.533 (sec)
 
 Time for plotting              3.726 (sec)
 Total Execution Time          14.187 (sec)

 *===========================================================================*
 |                             TIMING INFORMATION                            |
 *===========================================================================*
 |    Tag                                                Ncalls      Time (s)|
 |---------------------------------------------------------------------------|
 |kmesh: get                                        :         1         0.239|
 |overlap: allocate                                 :         1         0.001|
 |overlap: read                                     :         1         1.052|
 |dis: main                                         :         1         6.654|
 |wann: main                                        :         1         2.436|
 |plot: main                                        :         1         3.726|
 *---------------------------------------------------------------------------*
 
 All done: wannier90 exiting
