  16  16   1   0
  0.6556841E+02  0.6355400E-09  0.6355400E-09  0.2999150E-08  0.2000000E-15
  1.000000000000000E-004
  CAR 
 PtCl3                                   
      5.10653929    -20.00603592  301     -2.58886548      1.00000000
    -20.006  0.0000E+00  0.0000E+00
    -19.922  0.0000E+00  0.0000E+00
    -19.839  0.0000E+00  0.0000E+00
    -19.755  0.0000E+00  0.0000E+00
    -19.671  0.0000E+00  0.0000E+00
    -19.587  0.0000E+00  0.0000E+00
    -19.504  0.0000E+00  0.0000E+00
    -19.420  0.3940E-14  0.3298E-15
    -19.336  0.2696E-10  0.2257E-11
    -19.253  0.4722E-07  0.3955E-08
    -19.169  0.2154E-04  0.1807E-05
    -19.085  0.2621E-02  0.2212E-03
    -19.002  0.8849E-01  0.7629E-02
    -18.918  0.8876E+00  0.8193E-01
    -18.834  0.3075E+01  0.3393E+00
    -18.750  0.5276E+01  0.7810E+00
    -18.667  0.6996E+01  0.1367E+01
    -18.583  0.8314E+01  0.2062E+01
    -18.499  0.9483E+01  0.2856E+01
    -18.416  0.1100E+02  0.3777E+01
    -18.332  0.1157E+02  0.4746E+01
    -18.248  0.1105E+02  0.5671E+01
    -18.164  0.1675E+02  0.7073E+01
    -18.081  0.3577E+02  0.1007E+02
    -17.997  0.5291E+02  0.1450E+02
    -17.913  0.5422E+02  0.1903E+02
    -17.830  0.4149E+02  0.2251E+02
    -17.746  0.1567E+02  0.2382E+02
    -17.662  0.2073E+01  0.2399E+02
    -17.578  0.8297E-01  0.2400E+02
    -17.495  0.9330E-03  0.2400E+02
    -17.411  0.2822E-05  0.2400E+02
    -17.327  0.2236E-08  0.2400E+02
    -17.244  0.4554E-12  0.2400E+02
    -17.160  0.0000E+00  0.2400E+02
    -17.076  0.0000E+00  0.2400E+02
    -16.993  0.0000E+00  0.2400E+02
    -16.909  0.0000E+00  0.2400E+02
    -16.825  0.0000E+00  0.2400E+02
    -16.741  0.0000E+00  0.2400E+02
    -16.658  0.0000E+00  0.2400E+02
    -16.574  0.0000E+00  0.2400E+02
    -16.490  0.0000E+00  0.2400E+02
    -16.407  0.0000E+00  0.2400E+02
    -16.323  0.0000E+00  0.2400E+02
    -16.239  0.0000E+00  0.2400E+02
    -16.155  0.0000E+00  0.2400E+02
    -16.072  0.0000E+00  0.2400E+02
    -15.988  0.0000E+00  0.2400E+02
    -15.904  0.0000E+00  0.2400E+02
    -15.821  0.0000E+00  0.2400E+02
    -15.737  0.0000E+00  0.2400E+02
    -15.653  0.0000E+00  0.2400E+02
    -15.569  0.0000E+00  0.2400E+02
    -15.486  0.0000E+00  0.2400E+02
    -15.402  0.0000E+00  0.2400E+02
    -15.318  0.0000E+00  0.2400E+02
    -15.235  0.0000E+00  0.2400E+02
    -15.151  0.0000E+00  0.2400E+02
    -15.067  0.0000E+00  0.2400E+02
    -14.984  0.0000E+00  0.2400E+02
    -14.900  0.0000E+00  0.2400E+02
    -14.816  0.0000E+00  0.2400E+02
    -14.732  0.0000E+00  0.2400E+02
    -14.649  0.0000E+00  0.2400E+02
    -14.565  0.0000E+00  0.2400E+02
    -14.481  0.0000E+00  0.2400E+02
    -14.398  0.0000E+00  0.2400E+02
    -14.314  0.0000E+00  0.2400E+02
    -14.230  0.0000E+00  0.2400E+02
    -14.146  0.0000E+00  0.2400E+02
    -14.063  0.0000E+00  0.2400E+02
    -13.979  0.0000E+00  0.2400E+02
    -13.895  0.0000E+00  0.2400E+02
    -13.812  0.0000E+00  0.2400E+02
    -13.728  0.0000E+00  0.2400E+02
    -13.644  0.0000E+00  0.2400E+02
    -13.560  0.0000E+00  0.2400E+02
    -13.477  0.0000E+00  0.2400E+02
    -13.393  0.0000E+00  0.2400E+02
    -13.309  0.0000E+00  0.2400E+02
    -13.226  0.0000E+00  0.2400E+02
    -13.142  0.0000E+00  0.2400E+02
    -13.058  0.0000E+00  0.2400E+02
    -12.975  0.0000E+00  0.2400E+02
    -12.891  0.0000E+00  0.2400E+02
    -12.807  0.0000E+00  0.2400E+02
    -12.723  0.0000E+00  0.2400E+02
    -12.640  0.0000E+00  0.2400E+02
    -12.556  0.0000E+00  0.2400E+02
    -12.472  0.0000E+00  0.2400E+02
    -12.389  0.0000E+00  0.2400E+02
    -12.305  0.0000E+00  0.2400E+02
    -12.221  0.0000E+00  0.2400E+02
    -12.137  0.0000E+00  0.2400E+02
    -12.054  0.0000E+00  0.2400E+02
    -11.970  0.0000E+00  0.2400E+02
    -11.886  0.0000E+00  0.2400E+02
    -11.803  0.0000E+00  0.2400E+02
    -11.719  0.0000E+00  0.2400E+02
    -11.635  0.0000E+00  0.2400E+02
    -11.551  0.0000E+00  0.2400E+02
    -11.468  0.0000E+00  0.2400E+02
    -11.384  0.0000E+00  0.2400E+02
    -11.300  0.0000E+00  0.2400E+02
    -11.217  0.0000E+00  0.2400E+02
    -11.133  0.0000E+00  0.2400E+02
    -11.049  0.0000E+00  0.2400E+02
    -10.966  0.0000E+00  0.2400E+02
    -10.882  0.0000E+00  0.2400E+02
    -10.798  0.0000E+00  0.2400E+02
    -10.714  0.0000E+00  0.2400E+02
    -10.631  0.0000E+00  0.2400E+02
    -10.547  0.0000E+00  0.2400E+02
    -10.463  0.0000E+00  0.2400E+02
    -10.380  0.0000E+00  0.2400E+02
    -10.296  0.0000E+00  0.2400E+02
    -10.212  0.0000E+00  0.2400E+02
    -10.128  0.0000E+00  0.2400E+02
    -10.045  0.0000E+00  0.2400E+02
     -9.961  0.0000E+00  0.2400E+02
     -9.877  0.0000E+00  0.2400E+02
     -9.794  0.0000E+00  0.2400E+02
     -9.710  0.5755E-12  0.2400E+02
     -9.626  0.2118E-08  0.2400E+02
     -9.542  0.2014E-05  0.2400E+02
     -9.459  0.5039E-03  0.2400E+02
     -9.375  0.3415E-01  0.2400E+02
     -9.291  0.6611E+00  0.2406E+02
     -9.208  0.4121E+01  0.2440E+02
     -9.124  0.1098E+02  0.2532E+02
     -9.040  0.1836E+02  0.2686E+02
     -8.957  0.2277E+02  0.2876E+02
     -8.873  0.2188E+02  0.3060E+02
     -8.789  0.1880E+02  0.3217E+02
     -8.705  0.2088E+02  0.3392E+02
     -8.622  0.2260E+02  0.3581E+02
     -8.538  0.2111E+02  0.3758E+02
     -8.454  0.2118E+02  0.3935E+02
     -8.371  0.2403E+02  0.4136E+02
     -8.287  0.2482E+02  0.4344E+02
     -8.203  0.1941E+02  0.4506E+02
     -8.119  0.1425E+02  0.4626E+02
     -8.036  0.1204E+02  0.4727E+02
     -7.952  0.1250E+02  0.4831E+02
     -7.868  0.1671E+02  0.4971E+02
     -7.785  0.1971E+02  0.5136E+02
     -7.701  0.1689E+02  0.5277E+02
     -7.617  0.1411E+02  0.5396E+02
     -7.533  0.1762E+02  0.5543E+02
     -7.450  0.1918E+02  0.5704E+02
     -7.366  0.1615E+02  0.5839E+02
     -7.282  0.1437E+02  0.5959E+02
     -7.199  0.1352E+02  0.6072E+02
     -7.115  0.1351E+02  0.6185E+02
     -7.031  0.1406E+02  0.6303E+02
     -6.947  0.1441E+02  0.6424E+02
     -6.864  0.1624E+02  0.6560E+02
     -6.780  0.1883E+02  0.6717E+02
     -6.696  0.1851E+02  0.6872E+02
     -6.613  0.1486E+02  0.6997E+02
     -6.529  0.1206E+02  0.7098E+02
     -6.445  0.1111E+02  0.7191E+02
     -6.362  0.1128E+02  0.7285E+02
     -6.278  0.1382E+02  0.7401E+02
     -6.194  0.1663E+02  0.7540E+02
     -6.110  0.1728E+02  0.7684E+02
     -6.027  0.1861E+02  0.7840E+02
     -5.943  0.1883E+02  0.7998E+02
     -5.859  0.1933E+02  0.8160E+02
     -5.776  0.2314E+02  0.8353E+02
     -5.692  0.2731E+02  0.8582E+02
     -5.608  0.2840E+02  0.8820E+02
     -5.524  0.2816E+02  0.9055E+02
     -5.441  0.2469E+02  0.9262E+02
     -5.357  0.2225E+02  0.9448E+02
     -5.273  0.1975E+02  0.9614E+02
     -5.190  0.1607E+02  0.9748E+02
     -5.106  0.1403E+02  0.9866E+02
     -5.022  0.1066E+02  0.9955E+02
     -4.938  0.9131E+01  0.1003E+03
     -4.855  0.1479E+02  0.1016E+03
     -4.771  0.2308E+02  0.1035E+03
     -4.687  0.2994E+02  0.1060E+03
     -4.604  0.3169E+02  0.1086E+03
     -4.520  0.2549E+02  0.1108E+03
     -4.436  0.1433E+02  0.1120E+03
     -4.353  0.1112E+02  0.1129E+03
     -4.269  0.1770E+02  0.1144E+03
     -4.185  0.2420E+02  0.1164E+03
     -4.101  0.2219E+02  0.1183E+03
     -4.018  0.1392E+02  0.1194E+03
     -3.934  0.5527E+01  0.1199E+03
     -3.850  0.1114E+01  0.1200E+03
     -3.767  0.8772E-01  0.1200E+03
     -3.683  0.2208E-02  0.1200E+03
     -3.599  0.1584E-04  0.1200E+03
     -3.515  0.3054E-07  0.1200E+03
     -3.432  0.1536E-10  0.1200E+03
     -3.348  0.5669E-14  0.1200E+03
     -3.264  0.2824E-10  0.1200E+03
     -3.181  0.5477E-07  0.1200E+03
     -3.097  0.2782E-04  0.1200E+03
     -3.013  0.3808E-02  0.1200E+03
     -2.929  0.1475E+00  0.1200E+03
     -2.846  0.1777E+01  0.1202E+03
     -2.762  0.7973E+01  0.1208E+03
     -2.678  0.1691E+02  0.1222E+03
     -2.595  0.1975E+02  0.1239E+03
     -2.511  0.1482E+02  0.1251E+03
     -2.427  0.1157E+02  0.1261E+03
     -2.344  0.1192E+02  0.1271E+03
     -2.260  0.8472E+01  0.1278E+03
     -2.176  0.5232E+01  0.1283E+03
     -2.092  0.1177E+02  0.1292E+03
     -2.009  0.2221E+02  0.1311E+03
     -1.925  0.2243E+02  0.1330E+03
     -1.841  0.1570E+02  0.1343E+03
     -1.758  0.1253E+02  0.1353E+03
     -1.674  0.6559E+01  0.1359E+03
     -1.590  0.1278E+01  0.1360E+03
     -1.506  0.7759E-01  0.1360E+03
     -1.423  0.1360E-02  0.1360E+03
     -1.339  0.6575E-05  0.1360E+03
     -1.255  0.8495E-08  0.1360E+03
     -1.172  0.2873E-11  0.1360E+03
     -1.088  0.0000E+00  0.1360E+03
     -1.004  0.0000E+00  0.1360E+03
     -0.920  0.0000E+00  0.1360E+03
     -0.837  0.0000E+00  0.1360E+03
     -0.753  0.0000E+00  0.1360E+03
     -0.669  0.0000E+00  0.1360E+03
     -0.586  0.0000E+00  0.1360E+03
     -0.502  0.0000E+00  0.1360E+03
     -0.418  0.0000E+00  0.1360E+03
     -0.335  0.0000E+00  0.1360E+03
     -0.251  0.0000E+00  0.1360E+03
     -0.167  0.0000E+00  0.1360E+03
     -0.083  0.0000E+00  0.1360E+03
      0.000  0.0000E+00  0.1360E+03
      0.084  0.0000E+00  0.1360E+03
      0.168  0.0000E+00  0.1360E+03
      0.251  0.0000E+00  0.1360E+03
      0.335  0.5201E-16  0.1360E+03
      0.419  0.5867E-12  0.1360E+03
      0.503  0.1674E-08  0.1360E+03
      0.586  0.1235E-05  0.1360E+03
      0.670  0.2405E-03  0.1360E+03
      0.754  0.1274E-01  0.1360E+03
      0.837  0.1932E+00  0.1360E+03
      0.921  0.9090E+00  0.1361E+03
      1.005  0.1546E+01  0.1362E+03
      1.089  0.1343E+01  0.1363E+03
      1.172  0.1086E+01  0.1364E+03
      1.256  0.1419E+01  0.1365E+03
      1.340  0.2244E+01  0.1367E+03
      1.423  0.2380E+01  0.1369E+03
      1.507  0.2023E+01  0.1371E+03
      1.591  0.2053E+01  0.1373E+03
      1.674  0.3372E+01  0.1376E+03
      1.758  0.6018E+01  0.1381E+03
      1.842  0.8470E+01  0.1388E+03
      1.926  0.1151E+02  0.1397E+03
      2.009  0.1384E+02  0.1409E+03
      2.093  0.1354E+02  0.1420E+03
      2.177  0.1032E+02  0.1429E+03
      2.260  0.7576E+01  0.1435E+03
      2.344  0.4432E+01  0.1439E+03
      2.428  0.1173E+01  0.1440E+03
      2.512  0.1093E+00  0.1440E+03
      2.595  0.6697E-01  0.1440E+03
      2.679  0.5473E+00  0.1441E+03
      2.763  0.1568E+01  0.1442E+03
      2.846  0.2091E+01  0.1444E+03
      2.930  0.2713E+01  0.1446E+03
      3.014  0.3609E+01  0.1449E+03
      3.098  0.3772E+01  0.1452E+03
      3.181  0.4320E+01  0.1456E+03
      3.265  0.5418E+01  0.1460E+03
      3.349  0.6790E+01  0.1466E+03
      3.432  0.8650E+01  0.1473E+03
      3.516  0.1033E+02  0.1482E+03
      3.600  0.1211E+02  0.1492E+03
      3.683  0.1318E+02  0.1503E+03
      3.767  0.1112E+02  0.1512E+03
      3.851  0.5834E+01  0.1517E+03
      3.935  0.2357E+01  0.1519E+03
      4.018  0.8927E+00  0.1520E+03
      4.102  0.1892E+00  0.1520E+03
      4.186  0.1489E-01  0.1520E+03
      4.269  0.3663E-03  0.1520E+03
      4.353  0.2593E-05  0.1520E+03
      4.437  0.5039E-08  0.1520E+03
      4.521  0.2612E-11  0.1520E+03
      4.604  0.3467E-15  0.1520E+03
      4.688  0.0000E+00  0.1520E+03
      4.772  0.0000E+00  0.1520E+03
      4.855  0.0000E+00  0.1520E+03
      4.939  0.0000E+00  0.1520E+03
      5.023  0.0000E+00  0.1520E+03
      5.107  0.0000E+00  0.1520E+03
      5.10653929    -20.00603592  301     -2.58886548      1.00000000
    -20.006  0.0000E+00  0.0000E+00  0.0000E+00  0.0000E+00  0.0000E+00  0.0000E+00  0.0000E+00  0.0000E+00  0.0000E+00  0.0000E+00  0.0000E+00  0.0000E+00  0.0000E+00  0.0000E+00  0.0000E+00  0.0000E+00  0.0000E+00  0.0000E+00  0.0000E+00  0.0000E+00  0.0000E+00  0.0000E+00  0.0000E+00  0.0000E+00  0.0000E+00  0.0000E+00  0.0000E+00  0.0000E+00  0.0000E+00  0.0000E+00  0.0000E+00  0.0000E+00  0.0000E+00  0.0000E+00  0.0000E+00  0.0000E+00
    -19.922  0.0000E+00  0.0000E+00  0.0000E+00  0.0000E+00  0.0000E+00  0.0000E+00  0.0000E+00  0.0000E+00  0.0000E+00  0.0000E+00  0.0000E+00  0.0000E+00  0.0000E+00  0.0000E+00  0.0000E+00  0.0000E+00  0.0000E+00  0.0000E+00  0.0000E+00  0.0000E+00  0.0000E+00  0.0000E+00  0.0000E+00  0.0000E+00  0.0000E+00  0.0000E+00  0.0000E+00  0.0000E+00  0.0000E+00  0.0000E+00  0.0000E+00  0.0000E+00  0.0000E+00  0.0000E+00  0.0000E+00  0.0000E+00
    -19.839  0.0000E+00  0.0000E+00  0.0000E+00  0.0000E+00  0.0000E+00  0.0000E+00  0.0000E+00  0.0000E+00  0.0000E+00  0.0000E+00  0.0000E+00  0.0000E+00  0.0000E+00  0.0000E+00  0.0000E+00  0.0000E+00  0.0000E+00  0.0000E+00  0.0000E+00  0.0000E+00  0.0000E+00  0.0000E+00  0.0000E+00  0.0000E+00  0.0000E+00  0.0000E+00  0.0000E+00  0.0000E+00  0.0000E+00  0.0000E+00  0.0000E+00  0.0000E+00  0.0000E+00  0.0000E+00  0.0000E+00  0.0000E+00
    -19.755  0.0000E+00  0.0000E+00  0.0000E+00  0.0000E+00  0.0000E+00  0.0000E+00  0.0000E+00  0.0000E+00  0.0000E+00  0.0000E+00  0.0000E+00  0.0000E+00  0.0000E+00  0.0000E+00  0.0000E+00  0.0000E+00  0.0000E+00  0.0000E+00  0.0000E+00  0.0000E+00  0.0000E+00  0.0000E+00  0.0000E+00  0.0000E+00  0.0000E+00  0.0000E+00  0.0000E+00  0.0000E+00  0.0000E+00  0.0000E+00  0.0000E+00  0.0000E+00  0.0000E+00  0.0000E+00  0.0000E+00  0.0000E+00
    -19.671  0.0000E+00  0.0000E+00  0.0000E+00  0.0000E+00  0.0000E+00  0.0000E+00  0.0000E+00  0.0000E+00  0.0000E+00  0.0000E+00  0.0000E+00  0.0000E+00  0.0000E+00  0.0000E+00  0.0000E+00  0.0000E+00  0.0000E+00  0.0000E+00  0.0000E+00  0.0000E+00  0.0000E+00  0.0000E+00  0.0000E+00  0.0000E+00  0.0000E+00  0.0000E+00  0.0000E+00  0.0000E+00  0.0000E+00  0.0000E+00  0.0000E+00  0.0000E+00  0.0000E+00  0.0000E+00  0.0000E+00  0.0000E+00
    -19.587  0.0000E+00  0.0000E+00  0.0000E+00  0.0000E+00  0.0000E+00  0.0000E+00  0.0000E+00  0.0000E+00  0.0000E+00  0.0000E+00  0.0000E+00  0.0000E+00  0.0000E+00  0.0000E+00  0.0000E+00  0.0000E+00  0.0000E+00  0.0000E+00  0.0000E+00  0.0000E+00  0.0000E+00  0.0000E+00  0.0000E+00  0.0000E+00  0.0000E+00  0.0000E+00  0.0000E+00  0.0000E+00  0.0000E+00  0.0000E+00  0.0000E+00  0.0000E+00  0.0000E+00  0.0000E+00  0.0000E+00  0.0000E+00
    -19.504  0.0000E+00  0.0000E+00  0.0000E+00  0.0000E+00  0.0000E+00  0.0000E+00  0.0000E+00  0.0000E+00  0.0000E+00  0.0000E+00  0.0000E+00  0.0000E+00  0.0000E+00  0.0000E+00  0.0000E+00  0.0000E+00  0.0000E+00  0.0000E+00  0.0000E+00  0.0000E+00  0.0000E+00  0.0000E+00  0.0000E+00  0.0000E+00  0.0000E+00  0.0000E+00  0.0000E+00  0.0000E+00  0.0000E+00  0.0000E+00  0.0000E+00  0.0000E+00  0.0000E+00  0.0000E+00  0.0000E+00  0.0000E+00
    -19.420  0.6306E-16  0.4857E-20  0.6302E-16 -0.1631E-20  0.7790E-19  0.4073E-22  0.7781E-19  0.4913E-21  0.4167E-21 -0.2790E-23 -0.3581E-21 -0.1202E-22  0.1078E-19 -0.1712E-20  0.9934E-20  0.3985E-21  0.3427E-20 -0.8062E-21  0.2981E-20 -0.1148E-22  0.2503E-20 -0.9681E-21  0.1108E-20 -0.9431E-23  0.5411E-18 -0.5074E-21  0.5408E-18 -0.3305E-24  0.1368E-19 -0.4149E-22  0.1368E-19  0.6726E-22  0.2378E-19  0.5803E-23  0.2375E-19  0.1673E-22
    -19.336  0.4312E-12  0.3747E-16  0.4309E-12 -0.1367E-16  0.6474E-15  0.3490E-18  0.6466E-15  0.4365E-17  0.3245E-17 -0.2486E-19 -0.2752E-17 -0.1118E-18  0.8904E-16 -0.1293E-16  0.8277E-16  0.3493E-17  0.2834E-16 -0.6065E-17  0.2519E-16 -0.1827E-18  0.1988E-16 -0.7201E-17  0.1038E-16 -0.8159E-19  0.3697E-14 -0.3790E-17  0.3695E-14 -0.2017E-19  0.1138E-15 -0.3924E-18  0.1137E-15  0.5417E-18  0.1982E-15  0.3704E-19  0.1980E-15  0.1024E-18
    -19.253  0.7545E-09  0.7393E-13  0.7540E-09 -0.2902E-13  0.1359E-11  0.7517E-15  0.1357E-11  0.9687E-14  0.6458E-14 -0.5524E-16 -0.5411E-14 -0.2564E-15  0.1868E-12 -0.2504E-13  0.1748E-12  0.7679E-14  0.5949E-13 -0.1169E-13  0.5379E-13 -0.5350E-15  0.4039E-13 -0.1373E-13  0.2381E-13 -0.1768E-15  0.6466E-11 -0.7259E-14  0.6462E-11 -0.7204E-16  0.2390E-12 -0.9087E-15  0.2388E-12  0.1112E-14  0.4171E-12  0.5897E-16  0.4167E-12  0.1521E-15
    -19.169  0.3437E-06  0.3872E-10  0.3434E-06 -0.1677E-10  0.7674E-09  0.4404E-12  0.7664E-09  0.5876E-11  0.3455E-11 -0.3339E-13 -0.2854E-11 -0.1609E-12  0.1055E-09 -0.1287E-10  0.9940E-10  0.4611E-11  0.3372E-10 -0.5976E-11  0.3100E-10 -0.4046E-12  0.2217E-10 -0.6902E-11  0.1465E-10 -0.1024E-12  0.2943E-08 -0.3681E-11  0.2941E-08 -0.5968E-13  0.1353E-09 -0.5728E-12  0.1352E-09  0.6182E-12  0.2364E-09  0.2240E-13  0.2361E-09  0.4532E-13
    -19.085  0.4174E-04  0.5557E-08  0.4170E-04 -0.2754E-08  0.1209E-06  0.7305E-10  0.1207E-06  0.1016E-08  0.5155E-09 -0.5728E-11 -0.4190E-09 -0.2881E-10  0.1667E-07 -0.1814E-08  0.1579E-07  0.7894E-09  0.5363E-08 -0.8350E-09  0.5009E-08 -0.8366E-10  0.3420E-08 -0.9407E-09  0.2513E-08 -0.1628E-10  0.3569E-06 -0.5096E-09  0.3565E-06 -0.1293E-10  0.2143E-07 -0.1024E-09  0.2141E-07  0.9713E-10  0.3744E-07  0.1860E-11  0.3739E-07 -0.2973E-12
    -19.002  0.1404E-02  0.2295E-06  0.1399E-02 -0.1376E-06  0.5631E-05  0.3654E-08  0.5612E-05  0.5353E-07  0.2276E-07 -0.2984E-09 -0.1811E-07 -0.1573E-08  0.7810E-06 -0.7371E-07  0.7427E-06  0.4118E-07  0.2546E-06 -0.3349E-07  0.2410E-06 -0.5082E-08  0.1582E-06 -0.3621E-07  0.1278E-06 -0.7384E-09  0.1198E-04 -0.2023E-07  0.1193E-04 -0.8070E-09  0.1009E-05 -0.5520E-08  0.1006E-05  0.4625E-08  0.1758E-05  0.2395E-10  0.1753E-05 -0.4222E-09
    -18.918  0.1400E-01  0.2940E-05  0.1363E-01 -0.2336E-05  0.8515E-04  0.6081E-07  0.8388E-04  0.9539E-06  0.3283E-06 -0.5288E-08 -0.2510E-06 -0.2909E-07  0.1196E-04 -0.9354E-06  0.1130E-04  0.7280E-06  0.3993E-05 -0.4160E-06  0.3795E-05 -0.1006E-06  0.2437E-05 -0.4177E-06  0.2121E-05 -0.9820E-08  0.1188E-03 -0.2509E-06  0.1159E-03 -0.1634E-07  0.1555E-04 -0.9925E-07  0.1537E-04  0.7491E-07  0.2695E-04  0.1400E-09  0.2661E-04 -0.1358E-07
    -18.834  0.4783E-01  0.1295E-04  0.4031E-01 -0.1625E-04  0.4938E-03  0.3922E-06  0.4582E-03  0.6846E-05  0.1847E-05 -0.3889E-07 -0.1254E-05 -0.2170E-06  0.7095E-04 -0.4171E-05  0.6350E-04  0.5200E-05  0.2465E-04 -0.1785E-05  0.2262E-04 -0.7638E-06  0.1500E-04 -0.1543E-05  0.1335E-04 -0.3153E-07  0.4017E-03 -0.1152E-05  0.3401E-03 -0.1290E-06  0.9339E-04 -0.6990E-06  0.8825E-04  0.5039E-06  0.1599E-03  0.1232E-07  0.1502E-03 -0.1200E-06
    -18.750  0.7992E-01  0.2284E-04  0.3210E-01 -0.6533E-04  0.1487E-02  0.1138E-05  0.1129E-02  0.2688E-04  0.5539E-05 -0.1745E-06 -0.2666E-05 -0.8871E-06  0.2190E-03 -0.7997E-05  0.1619E-03  0.2061E-04  0.8051E-04 -0.3101E-05  0.6438E-04 -0.2813E-05  0.4992E-04 -0.1577E-05  0.4068E-04  0.2177E-06  0.6550E-03 -0.2742E-05  0.2659E-03 -0.5502E-06  0.3012E-03 -0.2447E-05  0.2479E-03  0.2012E-05  0.5040E-03  0.2590E-06  0.4042E-03 -0.3537E-06
    -18.667  0.1006E+00  0.3355E-04 -0.3749E-02 -0.2587E-03  0.3521E-02  0.4856E-06  0.2049E-02  0.9262E-04  0.1297E-04 -0.8155E-06 -0.3716E-05 -0.3178E-05  0.5335E-03 -0.1331E-04  0.3031E-03  0.7505E-04  0.2112E-03 -0.3766E-05  0.1423E-03 -0.6030E-05  0.1379E-03  0.3224E-05  0.9862E-04  0.3744E-05  0.7935E-03 -0.5149E-05 -0.4423E-04 -0.2101E-05  0.8189E-03 -0.5268E-05  0.5855E-03  0.8086E-05  0.1312E-02  0.3132E-05  0.8854E-03  0.6282E-06
    -18.583  0.1079E+00  0.8234E-04  0.3339E-02 -0.1111E-02  0.7267E-02 -0.3527E-05  0.3842E-02  0.3304E-03  0.2738E-04 -0.3029E-05 -0.4874E-05 -0.1115E-04  0.1391E-02 -0.3641E-04  0.8381E-03  0.2773E-03  0.5933E-03 -0.9096E-05  0.4156E-03 -0.1956E-05  0.4133E-03  0.1840E-04  0.3056E-03  0.2598E-04  0.8044E-03 -0.9420E-05 -0.6003E-05 -0.8357E-05  0.1928E-02 -0.7072E-05  0.1303E-02  0.3717E-04  0.2964E-02  0.1870E-04  0.1878E-02  0.1693E-04
    -18.499  0.1087E+00 -0.9741E-04  0.1307E-01 -0.3522E-02  0.1133E-01  0.2716E-04  0.4137E-02  0.9153E-03  0.4966E-04 -0.3865E-05  0.2962E-06 -0.2877E-04  0.3243E-02 -0.3732E-04  0.2031E-02  0.7362E-03  0.1442E-02 -0.1266E-04  0.1006E-02  0.3535E-04  0.1047E-02  0.5183E-04  0.7623E-03  0.9161E-04  0.7574E-03 -0.1396E-04  0.7258E-04 -0.2501E-04  0.3165E-02 -0.7044E-05  0.1544E-02  0.1289E-03  0.4727E-02  0.5823E-04  0.2093E-02  0.9846E-04
    -18.416  0.1100E+00 -0.4500E-03 -0.6541E-02 -0.4389E-02  0.1678E-01  0.4821E-04  0.3917E-02  0.1279E-02  0.8233E-04  0.3432E-05  0.1670E-05 -0.5081E-04  0.5303E-02  0.5209E-04  0.2210E-02  0.1111E-02  0.2415E-02 -0.1284E-04  0.1194E-02  0.6633E-06  0.1791E-02  0.9189E-04  0.9626E-03  0.1124E-03  0.7189E-03 -0.1070E-04 -0.5965E-04 -0.3242E-04  0.4577E-02 -0.4228E-04  0.1320E-02  0.1429E-03  0.6690E-02  0.8006E-04  0.1601E-02  0.5774E-04
    -18.332  0.9891E-01  0.2378E-03 -0.1598E-01  0.1997E-02  0.2235E-01 -0.1029E-03  0.5946E-02  0.3138E-03  0.1206E-03  0.9787E-05  0.2826E-06 -0.6020E-04  0.6192E-02  0.9453E-04  0.6985E-05  0.7514E-03  0.2890E-02 -0.7753E-04  0.3139E-03 -0.2732E-03  0.2178E-02  0.5678E-04  0.3924E-03 -0.6797E-04  0.6100E-03  0.4045E-05 -0.1171E-03  0.6125E-05  0.5840E-02 -0.1449E-03  0.1751E-02 -0.1782E-03  0.8400E-02  0.9066E-05  0.2146E-02 -0.4379E-03
    -18.248  0.7265E-01  0.3296E-03 -0.2398E-01  0.4873E-02  0.2517E-01 -0.5524E-04  0.1331E-02 -0.2917E-03  0.4123E-03 -0.2996E-05  0.2920E-03 -0.4898E-04  0.7230E-02  0.1025E-03 -0.2106E-03  0.4032E-03  0.4333E-02 -0.1586E-03  0.1129E-02 -0.3356E-03  0.4148E-02 -0.8050E-04  0.1850E-02 -0.1684E-03  0.4239E-03  0.1564E-04 -0.1459E-03  0.2640E-04  0.7516E-02 -0.1390E-03  0.2494E-02 -0.3341E-03  0.9620E-02 -0.2449E-04  0.1916E-02 -0.5953E-03
    -18.164  0.4782E-01 -0.7704E-04 -0.2547E-01  0.2209E-02  0.3203E-01  0.7501E-04  0.2512E-02 -0.4511E-03  0.4090E-02 -0.1096E-03  0.3851E-02  0.2966E-04  0.1843E-01 -0.5471E-04  0.1256E-01  0.1051E-03  0.1655E-01 -0.5422E-04  0.1400E-01  0.4215E-05  0.2109E-01 -0.2802E-03  0.1909E-01 -0.2098E-03  0.2882E-03  0.1440E-04 -0.1433E-03  0.2017E-04  0.2263E-01  0.2910E-03  0.1677E-01 -0.2983E-03  0.1841E-01  0.3804E-04  0.9533E-02 -0.1849E-03
    -18.081  0.2443E-01 -0.5325E-04 -0.1371E-01  0.5873E-03  0.4325E-01  0.2338E-03  0.1652E-01 -0.9180E-03  0.2359E-01 -0.3486E-03  0.2194E-01  0.5612E-04  0.4734E-01 -0.6442E-03  0.3714E-01 -0.7405E-03  0.4402E-01  0.3649E-03  0.3839E-01  0.2882E-03  0.6524E-01 -0.1663E-03  0.5912E-01 -0.2888E-03  0.2210E-03  0.7495E-05 -0.6926E-04  0.1910E-04  0.6756E-01  0.1058E-02  0.5918E-01 -0.7077E-04  0.4167E-01  0.1955E-03  0.3199E-01  0.3514E-03
    -17.997  0.1095E-01 -0.2497E-04 -0.7167E-02  0.2031E-03  0.4573E-01  0.3680E-03  0.6340E-02 -0.8434E-03  0.5551E-01 -0.3081E-03  0.4102E-01 -0.3132E-03  0.6826E-01 -0.8268E-03  0.2418E-01 -0.1256E-02  0.6043E-01  0.6229E-03  0.2922E-01  0.2543E-03  0.1005E+00  0.4200E-03  0.6008E-01  0.1713E-03  0.2020E-03  0.3431E-05 -0.3063E-04  0.3463E-05  0.9616E-01  0.7625E-03  0.5792E-01  0.5854E-03  0.5447E-01  0.1208E-03  0.2777E-01  0.5952E-03
    -17.913  0.4949E-02 -0.2504E-04 -0.4189E-02  0.1021E-03  0.3845E-01 -0.1435E-03 -0.2119E-01 -0.6170E-03  0.6495E-01  0.1990E-03  0.1851E-02 -0.2681E-03  0.6758E-01  0.3596E-03 -0.2725E-01 -0.1217E-02  0.5964E-01 -0.4888E-04 -0.1908E-01  0.3047E-03  0.1023E+00 -0.2091E-03 -0.1945E-01  0.3273E-03  0.1802E-03  0.5717E-06 -0.1836E-04  0.2672E-06  0.9354E-01 -0.3264E-03 -0.2818E-01  0.2708E-03  0.5171E-01 -0.2840E-03 -0.1834E-01  0.4457E-03
    -17.830  0.1609E-02 -0.9797E-05 -0.1435E-02  0.1981E-04  0.2275E-01 -0.3396E-03 -0.2055E-01 -0.2283E-03  0.5604E-01  0.4147E-03 -0.4184E-01  0.3852E-03  0.4376E-01  0.7649E-03 -0.3721E-01 -0.5838E-03  0.4332E-01 -0.3869E-03 -0.3624E-01 -0.2132E-04  0.8060E-01 -0.1363E-03 -0.6564E-01  0.3237E-04  0.1367E-03  0.1437E-06  0.1904E-05 -0.8702E-05  0.7464E-01 -0.9661E-03 -0.6479E-01 -0.2029E-03  0.3948E-01 -0.2759E-03 -0.3444E-01 -0.9641E-04
    -17.746  0.2631E-03 -0.6230E-06 -0.2074E-03 -0.6318E-05  0.6164E-02 -0.1298E-03 -0.6013E-02 -0.4445E-05  0.2495E-01  0.1918E-03 -0.2403E-01  0.3341E-03  0.1363E-01  0.2845E-03 -0.1324E-01 -0.1058E-03  0.1580E-01 -0.1772E-03 -0.1531E-01 -0.1571E-03  0.3247E-01  0.1527E-03 -0.3157E-01 -0.1410E-04  0.5163E-04  0.4591E-06  0.6756E-05 -0.1032E-04  0.2678E-01 -0.5457E-03 -0.2609E-01 -0.6195E-04  0.1357E-01 -0.4720E-04 -0.1318E-01 -0.1901E-03
    -17.662  0.1788E-04  0.1181E-06 -0.1007E-04 -0.1773E-05  0.6074E-03 -0.1805E-04 -0.5983E-03  0.4554E-05  0.3727E-02  0.2877E-04 -0.3704E-02  0.5915E-04  0.1576E-02  0.3758E-04 -0.1564E-02 -0.6931E-05  0.2091E-02 -0.2757E-04 -0.2071E-02 -0.3488E-04  0.4533E-02  0.3805E-04 -0.4511E-02 -0.1397E-05  0.6772E-05  0.1113E-06  0.1510E-05 -0.2107E-05  0.3194E-02 -0.8794E-04 -0.3153E-02 -0.1129E-05  0.1571E-02  0.2315E-06 -0.1547E-02 -0.3761E-04
    -17.578  0.4548E-06  0.8916E-08 -0.1208E-06 -0.9115E-07  0.1942E-04 -0.8003E-06 -0.1913E-04  0.2630E-06  0.1621E-03  0.1298E-05 -0.1617E-03  0.2740E-05  0.5726E-04  0.1601E-05 -0.5700E-04 -0.1609E-06  0.8454E-04 -0.1263E-05 -0.8404E-04 -0.1746E-05  0.1876E-03  0.1892E-05 -0.1872E-03 -0.3533E-07  0.2676E-06  0.5887E-08  0.7792E-07 -0.1031E-06  0.1150E-03 -0.3984E-05 -0.1136E-03  0.1541E-06  0.5551E-04  0.1393E-06 -0.5475E-04 -0.1800E-05
    -17.495  0.3927E-08  0.1358E-09  0.4901E-10 -0.1159E-08  0.1855E-06 -0.9876E-08 -0.1825E-06  0.3288E-08  0.1939E-05  0.1636E-07 -0.1935E-05  0.3365E-07  0.5950E-06  0.1936E-07 -0.5925E-06 -0.1236E-08  0.9573E-06 -0.1546E-07 -0.9526E-06 -0.2213E-07  0.2144E-05  0.2369E-07 -0.2141E-05 -0.4052E-09  0.2964E-08  0.7777E-10  0.1009E-08 -0.1289E-08  0.1180E-05 -0.4898E-07 -0.1164E-05  0.2961E-08  0.5622E-06  0.2024E-08 -0.5545E-06 -0.2235E-07
    -17.411  0.1039E-10  0.5171E-12  0.2226E-11 -0.3766E-11  0.4977E-09 -0.3207E-10 -0.4890E-09  0.1022E-10  0.6163E-08  0.5513E-10 -0.6151E-08  0.1079E-09  0.1677E-08  0.6250E-10 -0.1670E-08 -0.2884E-11  0.2899E-08 -0.4914E-10 -0.2887E-08 -0.7195E-10  0.6521E-08  0.7658E-10 -0.6511E-08 -0.1708E-11  0.8820E-11  0.2625E-12  0.3320E-11 -0.4141E-11  0.3301E-08 -0.1587E-09 -0.3254E-08  0.1074E-10  0.1559E-08  0.5894E-11 -0.1537E-08 -0.7197E-10
    -17.327  0.7746E-14  0.4988E-15  0.2657E-14 -0.3124E-14  0.3596E-12 -0.2678E-13 -0.3528E-12  0.8055E-14  0.5090E-11  0.4825E-13 -0.5080E-11  0.8896E-13  0.1246E-11  0.5228E-13 -0.1240E-11 -0.1909E-14  0.2289E-11 -0.4003E-13 -0.2279E-11 -0.5974E-13  0.5158E-11  0.6352E-13 -0.5150E-11 -0.1882E-14  0.6867E-14  0.2261E-15  0.2774E-14 -0.3401E-14  0.2444E-11 -0.1328E-12 -0.2406E-11  0.9046E-14  0.1147E-11  0.3879E-14 -0.1130E-11 -0.5949E-13
    -17.244  0.1520E-17  0.1207E-18  0.6770E-18 -0.6583E-18  0.6737E-16 -0.5681E-17 -0.6604E-16  0.1611E-17  0.1076E-14  0.1077E-16 -0.1074E-14  0.1867E-16  0.2389E-15  0.1115E-16 -0.2377E-15 -0.3343E-18  0.4634E-15 -0.8305E-17 -0.4616E-15 -0.1258E-16  0.1046E-14  0.1339E-16 -0.1044E-14 -0.4906E-18  0.1374E-17  0.4950E-19  0.5872E-18 -0.7093E-18  0.4678E-15 -0.2830E-16 -0.4598E-15  0.1876E-17  0.2181E-15  0.5906E-18 -0.2148E-15 -0.1251E-16
    -17.160  0.0000E+00  0.0000E+00  0.0000E+00  0.0000E+00  0.0000E+00  0.0000E+00  0.0000E+00  0.0000E+00  0.0000E+00  0.0000E+00  0.0000E+00  0.0000E+00  0.0000E+00  0.0000E+00  0.0000E+00  0.0000E+00  0.0000E+00  0.0000E+00  0.0000E+00  0.0000E+00  0.0000E+00  0.0000E+00  0.0000E+00  0.0000E+00  0.0000E+00  0.0000E+00  0.0000E+00  0.0000E+00  0.0000E+00  0.0000E+00  0.0000E+00  0.0000E+00  0.0000E+00  0.0000E+00  0.0000E+00  0.0000E+00
    -17.076  0.0000E+00  0.0000E+00  0.0000E+00  0.0000E+00  0.0000E+00  0.0000E+00  0.0000E+00  0.0000E+00  0.0000E+00  0.0000E+00  0.0000E+00  0.0000E+00  0.0000E+00  0.0000E+00  0.0000E+00  0.0000E+00  0.0000E+00  0.0000E+00  0.0000E+00  0.0000E+00  0.0000E+00  0.0000E+00  0.0000E+00  0.0000E+00  0.0000E+00  0.0000E+00  0.0000E+00  0.0000E+00  0.0000E+00  0.0000E+00  0.0000E+00  0.0000E+00  0.0000E+00  0.0000E+00  0.0000E+00  0.0000E+00
    -16.993  0.0000E+00  0.0000E+00  0.0000E+00  0.0000E+00  0.0000E+00  0.0000E+00  0.0000E+00  0.0000E+00  0.0000E+00  0.0000E+00  0.0000E+00  0.0000E+00  0.0000E+00  0.0000E+00  0.0000E+00  0.0000E+00  0.0000E+00  0.0000E+00  0.0000E+00  0.0000E+00  0.0000E+00  0.0000E+00  0.0000E+00  0.0000E+00  0.0000E+00  0.0000E+00  0.0000E+00  0.0000E+00  0.0000E+00  0.0000E+00  0.0000E+00  0.0000E+00  0.0000E+00  0.0000E+00  0.0000E+00  0.0000E+00
    -16.909  0.0000E+00  0.0000E+00  0.0000E+00  0.0000E+00  0.0000E+00  0.0000E+00  0.0000E+00  0.0000E+00  0.0000E+00  0.0000E+00  0.0000E+00  0.0000E+00  0.0000E+00  0.0000E+00  0.0000E+00  0.0000E+00  0.0000E+00  0.0000E+00  0.0000E+00  0.0000E+00  0.0000E+00  0.0000E+00  0.0000E+00  0.0000E+00  0.0000E+00  0.0000E+00  0.0000E+00  0.0000E+00  0.0000E+00  0.0000E+00  0.0000E+00  0.0000E+00  0.0000E+00  0.0000E+00  0.0000E+00  0.0000E+00
    -16.825  0.0000E+00  0.0000E+00  0.0000E+00  0.0000E+00  0.0000E+00  0.0000E+00  0.0000E+00  0.0000E+00  0.0000E+00  0.0000E+00  0.0000E+00  0.0000E+00  0.0000E+00  0.0000E+00  0.0000E+00  0.0000E+00  0.0000E+00  0.0000E+00  0.0000E+00  0.0000E+00  0.0000E+00  0.0000E+00  0.0000E+00  0.0000E+00  0.0000E+00  0.0000E+00  0.0000E+00  0.0000E+00  0.0000E+00  0.0000E+00  0.0000E+00  0.0000E+00  0.0000E+00  0.0000E+00  0.0000E+00  0.0000E+00
    -16.741  0.0000E+00  0.0000E+00  0.0000E+00  0.0000E+00  0.0000E+00  0.0000E+00  0.0000E+00  0.0000E+00  0.0000E+00  0.0000E+00  0.0000E+00  0.0000E+00  0.0000E+00  0.0000E+00  0.0000E+00  0.0000E+00  0.0000E+00  0.0000E+00  0.0000E+00  0.0000E+00  0.0000E+00  0.0000E+00  0.0000E+00  0.0000E+00  0.0000E+00  0.0000E+00  0.0000E+00  0.0000E+00  0.0000E+00  0.0000E+00  0.0000E+00  0.0000E+00  0.0000E+00  0.0000E+00  0.0000E+00  0.0000E+00
    -16.658  0.0000E+00  0.0000E+00  0.0000E+00  0.0000E+00  0.0000E+00  0.0000E+00  0.0000E+00  0.0000E+00  0.0000E+00  0.0000E+00  0.0000E+00  0.0000E+00  0.0000E+00  0.0000E+00  0.0000E+00  0.0000E+00  0.0000E+00  0.0000E+00  0.0000E+00  0.0000E+00  0.0000E+00  0.0000E+00  0.0000E+00  0.0000E+00  0.0000E+00  0.0000E+00  0.0000E+00  0.0000E+00  0.0000E+00  0.0000E+00  0.0000E+00  0.0000E+00  0.0000E+00  0.0000E+00  0.0000E+00  0.0000E+00
    -16.574  0.0000E+00  0.0000E+00  0.0000E+00  0.0000E+00  0.0000E+00  0.0000E+00  0.0000E+00  0.0000E+00  0.0000E+00  0.0000E+00  0.0000E+00  0.0000E+00  0.0000E+00  0.0000E+00  0.0000E+00  0.0000E+00  0.0000E+00  0.0000E+00  0.0000E+00  0.0000E+00  0.0000E+00  0.0000E+00  0.0000E+00  0.0000E+00  0.0000E+00  0.0000E+00  0.0000E+00  0.0000E+00  0.0000E+00  0.0000E+00  0.0000E+00  0.0000E+00  0.0000E+00  0.0000E+00  0.0000E+00  0.0000E+00