   16   16    1    1
  0.6556841E+02  0.6355400E-09  0.6355400E-09  0.2999150E-08  0.2000000E-15
  1.000000000000000E-004
  CAR 
 PtCl3                                   
    124    153    152
 
  0.0000000E+00  0.0000000E+00  0.0000000E+00  0.6535948E-02
    1      -18.864555   1.000000
    2      -18.864510   1.000000
    3      -18.728411   1.000000
    4      -18.728366   1.000000
    5      -18.067286   1.000000
    6      -18.067252   1.000000
    7      -18.065710   1.000000
    8      -18.065676   1.000000
    9      -18.052876   1.000000
   10      -18.052833   1.000000
   11      -18.040123   1.000000
   12      -18.040079   1.000000
   13      -18.034032   1.000000
   14      -18.033987   1.000000
   15      -17.914202   1.000000
   16      -17.914167   1.000000
   17      -17.912975   1.000000
   18      -17.912964   1.000000
   19      -17.912564   1.000000
   20      -17.912535   1.000000
   21      -17.877263   1.000000
   22      -17.877219   1.000000
   23      -17.876086   1.000000
   24      -17.876041   1.000000
   25       -9.163666   1.000000
   26       -9.163618   1.000000
   27       -9.058129   1.000000
   28       -9.058081   1.000000
   29       -8.932063   1.000000
   30       -8.932007   1.000000
   31       -8.903139   1.000000
   32       -8.903083   1.000000
   33       -8.716691   1.000000
   34       -8.716641   1.000000
   35       -8.606170   1.000000
   36       -8.606116   1.000000
   37       -8.467122   1.000000
   38       -8.467069   1.000000
   39       -8.457787   1.000000
   40       -8.457734   1.000000
   41       -8.371483   1.000000
   42       -8.371416   1.000000
   43       -8.331584   1.000000
   44       -8.331508   1.000000
   45       -8.112024   1.000000
   46       -8.111974   1.000000
   47       -8.108778   1.000000
   48       -8.108729   1.000000
   49       -7.912983   1.000000
   50       -7.912941   1.000000
   51       -7.905074   1.000000
   52       -7.905031   1.000000
   53       -7.798391   1.000000
   54       -7.798195   1.000000
   55       -7.794339   1.000000
   56       -7.794142   1.000000
   57       -7.542808   1.000000
   58       -7.542676   1.000000
   59       -7.527729   1.000000
   60       -7.527599   1.000000
   61       -7.116931   1.000000
   62       -7.116887   1.000000
   63       -7.044347   1.000000
   64       -7.044303   1.000000
   65       -7.018442   1.000000
   66       -7.018354   1.000000
   67       -6.986609   1.000000
   68       -6.986517   1.000000
   69       -6.887735   1.000000
   70       -6.887688   1.000000
   71       -6.776128   1.000000
   72       -6.776081   1.000000
   73       -5.991938   1.000000
   74       -5.991874   1.000000
   75       -5.841483   1.000000
   76       -5.841432   1.000000
   77       -5.769707   1.000000
   78       -5.769656   1.000000
   79       -5.743501   1.000000
   80       -5.743441   1.000000
   81       -5.735418   1.000000
   82       -5.735355   1.000000
   83       -5.644348   1.000000
   84       -5.644309   1.000000
   85       -5.575322   1.000000
   86       -5.575305   1.000000
   87       -5.566159   1.000000
   88       -5.566144   1.000000
   89       -5.479358   1.000000
   90       -5.479316   1.000000
   91       -5.468887   1.000000
   92       -5.468839   1.000000
   93       -5.406358   1.000000
   94       -5.406330   1.000000
   95       -5.351016   1.000000
   96       -5.350980   1.000000
   97       -5.325303   1.000000
   98       -5.325242   1.000000
   99       -5.224795   1.000000
  100       -5.224743   1.000000
  101       -4.936372   1.000000
  102       -4.936326   1.000000
  103       -4.887600   1.000000
  104       -4.887554   1.000000
  105       -4.745176   1.000000
  106       -4.745139   1.000000
  107       -4.722449   1.000000
  108       -4.722413   1.000000
  109       -4.579816   1.000000
  110       -4.579799   1.000000
  111       -4.561619   1.000000
  112       -4.561602   1.000000
  113       -4.430513   1.000000
  114       -4.430460   1.000000
  115       -4.333860   1.000000
  116       -4.333806   1.000000
  117       -4.240772   1.000000
  118       -4.240744   1.000000
  119       -4.226517   1.000000
  120       -4.226489   1.000000
  121       -2.692897   0.929385
  122       -2.692880   0.929354
  123       -2.683079   0.908633
  124       -2.683061   0.908591
  125       -2.342868   0.000252
  126       -2.342849   0.000251
  127       -2.339025   0.000205
  128       -2.339004   0.000205
  129       -2.045077   0.000000
  130       -2.045037   0.000000
  131       -2.040912   0.000000
  132       -2.040874   0.000000
  133       -1.770327   0.000000
  134       -1.770316   0.000000
  135       -1.765497   0.000000
  136       -1.765487   0.000000
  137        0.921247   0.000000
  138        0.921291   0.000000
  139        1.293576   0.000000
  140        1.293607   0.000000
  141        2.097973   0.000000
  142        2.098028   0.000000
  143        2.293347   0.000000
  144        2.293404   0.000000
  145        2.722226   0.000000
  146        2.722237   0.000000
  147        2.934966   0.000000
  148        2.934969   0.000000
  149        3.210984   0.000000
  150        3.211033   0.000000
  151        3.376156   0.000000
  152        3.379275   0.000000
 
 -0.6666667E-02  0.1333333E-01  0.0000000E+00  0.6535948E-02
    1      -18.864325   1.000000
    2      -18.864280   1.000000
    3      -18.728179   1.000000
    4      -18.728134   1.000000
    5      -18.067509   1.000000
    6      -18.067476   1.000000
    7      -18.065987   1.000000
    8      -18.065953   1.000000
    9      -18.052685   1.000000
   10      -18.052639   1.000000
   11      -18.040145   1.000000
   12      -18.040099   1.000000
   13      -18.033996   1.000000
   14      -18.033945   1.000000
   15      -17.915133   1.000000
   16      -17.915028   1.000000
   17      -17.913631   1.000000
   18      -17.913509   1.000000
   19      -17.911328   1.000000
   20      -17.911282   1.000000
   21      -17.877307   1.000000
   22      -17.877261   1.000000
   23      -17.876093   1.000000
   24      -17.876044   1.000000
   25       -9.163903   1.000000
   26       -9.163855   1.000000
   27       -9.058133   1.000000
   28       -9.058085   1.000000
   29       -8.931943   1.000000
   30       -8.931887   1.000000
   31       -8.903251   1.000000
   32       -8.903190   1.000000
   33       -8.716770   1.000000
   34       -8.716700   1.000000
   35       -8.606243   1.000000
   36       -8.606185   1.000000
   37       -8.467068   1.000000
   38       -8.466902   1.000000
   39       -8.457478   1.000000
   40       -8.457329   1.000000
   41       -8.371373   1.000000
   42       -8.371206   1.000000
   43       -8.331820   1.000000
   44       -8.331613   1.000000
   45       -8.111711   1.000000
   46       -8.111659   1.000000
   47       -8.108602   1.000000
   48       -8.108511   1.000000
   49       -7.913207   1.000000
   50       -7.912806   1.000000
   51       -7.905412   1.000000
   52       -7.905111   1.000000
   53       -7.798799   1.000000
   54       -7.798178   1.000000
   55       -7.794549   1.000000
   56       -7.794020   1.000000
   57       -7.542821   1.000000
   58       -7.542331   1.000000
   59       -7.527780   1.000000
   60       -7.527291   1.000000
   61       -7.118169   1.000000
   62       -7.118058   1.000000
   63       -7.057915   1.000000
   64       -7.057779   1.000000
   65       -7.009794   1.000000
   66       -7.008800   1.000000
   67       -6.979247   1.000000
   68       -6.978513   1.000000
   69       -6.886953   1.000000
   70       -6.886894   1.000000
   71       -6.775224   1.000000
   72       -6.775171   1.000000
   73       -5.993519   1.000000
   74       -5.993416   1.000000
   75       -5.842987   1.000000
   76       -5.842755   1.000000
   77       -5.771584   1.000000
   78       -5.771490   1.000000
   79       -5.744018   1.000000
   80       -5.743884   1.000000
   81       -5.735026   1.000000
   82       -5.734801   1.000000
   83       -5.645910   1.000000
   84       -5.645853   1.000000
   85       -5.575732   1.000000
   86       -5.575516   1.000000
   87       -5.566116   1.000000
   88       -5.565925   1.000000
   89       -5.479098   1.000000
   90       -5.479048   1.000000
   91       -5.469261   1.000000
   92       -5.469220   1.000000
   93       -5.405828   1.000000
   94       -5.405620   1.000000
   95       -5.351207   1.000000
   96       -5.350685   1.000000
   97       -5.326163   1.000000
   98       -5.325701   1.000000
   99       -5.224175   1.000000
  100       -5.224089   1.000000
  101       -4.935694   1.000000
  102       -4.935636   1.000000
  103       -4.887069   1.000000
  104       -4.886961   1.000000
  105       -4.745044   1.000000
  106       -4.744950   1.000000
  107       -4.722495   1.000000
  108       -4.722171   1.000000
  109       -4.580768   1.000000
  110       -4.580234   1.000000
  111       -4.562263   1.000000
  112       -4.562120   1.000000
  113       -4.429439   1.000000
  114       -4.429001   1.000000
  115       -4.333350   1.000000
  116       -4.333044   1.000000
  117       -4.240550   1.000000
  118       -4.240459   1.000000
  119       -4.226285   1.000000
  120       -4.226256   1.000000
  121       -2.692836   0.929268
  122       -2.692801   0.929202
  123       -2.683029   0.908517
  124       -2.682997   0.908441
  125       -2.343330   0.000258
  126       -2.343199   0.000256
  127       -2.339458   0.000210
  128       -2.339329   0.000209
  129       -2.045098   0.000000
  130       -2.044931   0.000000
  131       -2.040933   0.000000
  132       -2.040773   0.000000
  133       -1.770755   0.000000
  134       -1.770680   0.000000
  135       -1.765873   0.000000
  136       -1.765801   0.000000
  137        0.922515   0.000000
  138        0.922565   0.000000
  139        1.294731   0.000000
  140        1.294765   0.000000
  141        2.097664   0.000000
  142        2.097718   0.000000
  143        2.293040   0.000000
  144        2.293093   0.000000
  145        2.723122   0.000000
  146        2.723138   0.000000
  147        2.935685   0.000000
  148        2.935691   0.000000
  149        3.212142   0.000000
  150        3.212169   0.000000
  151        3.377527   0.000000
  152        3.380199   0.000000
 
 -0.1333333E-01  0.2666667E-01  0.0000000E+00  0.6535948E-02
    1      -18.863634   1.000000
    2      -18.863589   1.000000
    3      -18.727480   1.000000
    4      -18.727435   1.000000
    5      -18.068209   1.000000
    6      -18.068176   1.000000
    7      -18.066762   1.000000
    8      -18.066718   1.000000
    9      -18.052111   1.000000
   10      -18.052057   1.000000
   11      -18.040224   1.000000
   12      -18.040175   1.000000
   13      -18.033900   1.000000
   14      -18.033841   1.000000
   15      -17.916654   1.000000
   16      -17.916459   1.000000
   17      -17.914531   1.000000
   18      -17.914321   1.000000
   19      -17.909772   1.000000
   20      -17.909726   1.000000
   21      -17.877437   1.000000
   22      -17.877380   1.000000
   23      -17.876100   1.000000
   24      -17.876038   1.000000
   25       -9.164605   1.000000
   26       -9.164557   1.000000
   27       -9.058149   1.000000
   28       -9.058100   1.000000
   29       -8.931582   1.000000
   30       -8.931527   1.000000
   31       -8.903597   1.000000
   32       -8.903534   1.000000
   33       -8.717114   1.000000
   34       -8.716885   1.000000
   35       -8.606482   1.000000
   36       -8.606255   1.000000
   37       -8.466950   1.000000
   38       -8.466518   1.000000
   39       -8.456462   1.000000
   40       -8.456088   1.000000
   41       -8.371043   1.000000
   42       -8.370570   1.000000
   43       -8.332548   1.000000
   44       -8.331918   1.000000
   45       -8.111194   1.000000
   46       -8.110926   1.000000
   47       -8.107748   1.000000
   48       -8.107618   1.000000
   49       -7.914097   1.000000
   50       -7.912623   1.000000
   51       -7.906227   1.000000
   52       -7.905048   1.000000
   53       -7.799759   1.000000
   54       -7.798037   1.000000
   55       -7.795332   1.000000
   56       -7.793849   1.000000
   57       -7.543001   1.000000
   58       -7.541525   1.000000
   59       -7.527736   1.000000
   60       -7.526202   1.000000
   61       -7.121654   1.000000
   62       -7.121208   1.000000
   63       -7.080333   1.000000
   64       -7.080132   1.000000
   65       -6.998200   1.000000
   66       -6.996414   1.000000
   67       -6.959746   1.000000
   68       -6.958315   1.000000
   69       -6.884616   1.000000
   70       -6.884522   1.000000
   71       -6.772528   1.000000
   72       -6.772456   1.000000
   73       -5.998128   1.000000
   74       -5.997972   1.000000
   75       -5.847373   1.000000
   76       -5.847002   1.000000
   77       -5.777121   1.000000
   78       -5.777044   1.000000
   79       -5.745080   1.000000
   80       -5.745013   1.000000
   81       -5.733900   1.000000
   82       -5.733401   1.000000
   83       -5.650561   1.000000
   84       -5.650521   1.000000
   85       -5.576743   1.000000
   86       -5.576664   1.000000
   87       -5.566050   1.000000
   88       -5.565599   1.000000
   89       -5.480115   1.000000
   90       -5.479011   1.000000
   91       -5.469533   1.000000
   92       -5.468750   1.000000
   93       -5.403304   1.000000
   94       -5.403261   1.000000
   95       -5.351840   1.000000
   96       -5.350862   1.000000
   97       -5.328535   1.000000
   98       -5.327115   1.000000
   99       -5.222243   1.000000
  100       -5.221913   1.000000
  101       -4.933770   1.000000
  102       -4.933675   1.000000
  103       -4.885394   1.000000
  104       -4.885247   1.000000
  105       -4.745008   1.000000
  106       -4.744262   1.000000
  107       -4.722539   1.000000
  108       -4.721376   1.000000
  109       -4.583100   1.000000
  110       -4.581477   1.000000
  111       -4.564625   1.000000
  112       -4.563573   1.000000
  113       -4.425817   1.000000
  114       -4.425321   1.000000
  115       -4.331502   1.000000
  116       -4.331034   1.000000
  117       -4.240040   1.000000
  118       -4.239533   1.000000
  119       -4.225724   1.000000
  120       -4.225389   1.000000
  121       -2.692729   0.929064
  122       -2.692539   0.928697
  123       -2.682918   0.908259
  124       -2.682730   0.907820
  125       -2.344964   0.000281
  126       -2.344460   0.000274
  127       -2.340541   0.000223
  128       -2.340043   0.000217
  129       -2.045110   0.000000
  130       -2.044627   0.000000
  131       -2.040997   0.000000
  132       -2.040525   0.000000
  133       -1.772223   0.000000
  134       -1.771954   0.000000
  135       -1.766820   0.000000
  136       -1.766564   0.000000
  137        0.926335   0.000000
  138        0.926398   0.000000
  139        1.298164   0.000000
  140        1.298209   0.000000
  141        2.096732   0.000000
  142        2.096782   0.000000
  143        2.292119   0.000000
  144        2.292171   0.000000
  145        2.725935   0.000000
  146        2.725964   0.000000
  147        2.937812   0.000000
  148        2.937826   0.000000
  149        3.215233   0.000000
  150        3.215324   0.000000
  151        3.382289   0.000000
  152        3.391531   0.000000
 
 -0.2000000E-01  0.4000000E-01  0.0000000E+00  0.6535948E-02
    1      -18.862481   1.000000
    2      -18.862436   1.000000
    3      -18.726315   1.000000
    4      -18.726270   1.000000
    5      -18.069370   1.000000
    6      -18.069335   1.000000
    7      -18.067940   1.000000
    8      -18.067881   1.000000
    9      -18.051267   1.000000
   10      -18.051205   1.000000
   11      -18.040359   1.000000
   12      -18.040305   1.000000
   13      -18.033740   1.000000
   14      -18.033674   1.000000
   15      -17.918297   1.000000
   16      -17.918020   1.000000
   17      -17.915823   1.000000
   18      -17.915538   1.000000
   19      -17.908211   1.000000
   20      -17.908168   1.000000
   21      -17.877660   1.000000
   22      -17.877584   1.000000
   23      -17.876098   1.000000
   24      -17.876015   1.000000
   25       -9.165742   1.000000
   26       -9.165693   1.000000
   27       -9.058169   1.000000
   28       -9.058114   1.000000
   29       -8.931040   1.000000
   30       -8.930958   1.000000
   31       -8.904146   1.000000
   32       -8.904090   1.000000
   33       -8.717699   1.000000
   34       -8.717183   1.000000
   35       -8.606868   1.000000
   36       -8.606317   1.000000
   37       -8.466842   1.000000
   38       -8.466099   1.000000
   39       -8.454642   1.000000
   40       -8.454014   1.000000
   41       -8.370459   1.000000
   42       -8.369540   1.000000
   43       -8.333674   1.000000
   44       -8.332431   1.000000
   45       -8.110763   1.000000
   46       -8.110281   1.000000
   47       -8.105911   1.000000
   48       -8.105690   1.000000
   49       -7.915740   1.000000
   50       -7.912562   1.000000
   51       -7.907284   1.000000
   52       -7.904692   1.000000
   53       -7.801262   1.000000
   54       -7.798018   1.000000
   55       -7.796357   1.000000
   56       -7.793549   1.000000
   57       -7.543592   1.000000
   58       -7.540755   1.000000
   59       -7.527132   1.000000
   60       -7.524122   1.000000
   61       -7.127472   1.000000
   62       -7.125991   1.000000
   63       -7.103444   1.000000
   64       -7.102086   1.000000
   65       -6.985497   1.000000
   66       -6.983434   1.000000
   67       -6.934727   1.000000
   68       -6.933034   1.000000
   69       -6.880723   1.000000
   70       -6.880555   1.000000
   71       -6.768083   1.000000
   72       -6.767975   1.000000
   73       -6.005501   1.000000
   74       -6.005310   1.000000
   75       -5.854636   1.000000
   76       -5.854203   1.000000
   77       -5.786215   1.000000
   78       -5.785851   1.000000
   79       -5.747391   1.000000
   80       -5.746826   1.000000
   81       -5.731515   1.000000
   82       -5.731078   1.000000
   83       -5.658360   1.000000
   84       -5.658281   1.000000
   85       -5.580131   1.000000
   86       -5.578737   1.000000
   87       -5.564751   1.000000
   88       -5.564410   1.000000
   89       -5.482911   1.000000
   90       -5.480077   1.000000
   91       -5.469286   1.000000
   92       -5.467233   1.000000
   93       -5.399492   1.000000
   94       -5.399068   1.000000
   95       -5.353359   1.000000
   96       -5.351961   1.000000
   97       -5.331504   1.000000
   98       -5.328886   1.000000
   99       -5.218862   1.000000
  100       -5.218239   1.000000
  101       -4.930683   1.000000
  102       -4.930531   1.000000
  103       -4.882635   1.000000
  104       -4.882497   1.000000
  105       -4.745040   1.000000
  106       -4.743155   1.000000
  107       -4.722522   1.000000
  108       -4.720074   1.000000
  109       -4.586614   1.000000
  110       -4.583489   1.000000
  111       -4.568366   1.000000
  112       -4.565848   1.000000
  113       -4.419959   1.000000
  114       -4.419707   1.000000
  115       -4.328398   1.000000
  116       -4.327889   1.000000
  117       -4.239229   1.000000
  118       -4.237997   1.000000
  119       -4.224809   1.000000
  120       -4.223879   1.000000
  121       -2.692575   0.928767
  122       -2.692125   0.927898
  123       -2.682711   0.907776
  124       -2.682266   0.906729
  125       -2.347974   0.000329
  126       -2.347154   0.000315
  127       -2.341724   0.000237
  128       -2.340917   0.000227
  129       -2.045117   0.000000
  130       -2.044132   0.000000
  131       -2.041096   0.000000
  132       -2.040125   0.000000
  133       -1.774957   0.000000
  134       -1.774485   0.000000
  135       -1.767966   0.000000
  136       -1.767523   0.000000
  137        0.932687   0.000000
  138        0.932771   0.000000
  139        1.303859   0.000000
  140        1.303921   0.000000
  141        2.095177   0.000000
  142        2.095226   0.000000
  143        2.290585   0.000000
  144        2.290634   0.000000
  145        2.730635   0.000000
  146        2.730684   0.000000
  147        2.941316   0.000000
  148        2.941343   0.000000
  149        3.220230   0.000000
  150        3.220265   0.000000
  151        3.388580   0.000000
  152        3.391352   0.000000
 
 -0.2666667E-01  0.5333333E-01  0.0000000E+00  0.6535948E-02
    1      -18.860871   1.000000
    2      -18.860826   1.000000
    3      -18.724687   1.000000
    4      -18.724642   1.000000
    5      -18.070996   1.000000
    6      -18.070957   1.000000
    7      -18.069396   1.000000
    8      -18.069329   1.000000
    9      -18.050275   1.000000
   10      -18.050204   1.000000
   11      -18.040542   1.000000
   12      -18.040487   1.000000
   13      -18.033512   1.000000
   14      -18.033442   1.000000
   15      -17.920020   1.000000
   16      -17.919624   1.000000
   17      -17.917578   1.000000
   18      -17.917182   1.000000
   19      -17.906666   1.000000
   20      -17.906623   1.000000
   21      -17.877980   1.000000
   22      -17.877884   1.000000
   23      -17.876077   1.000000
   24      -17.875971   1.000000
   25       -9.167273   1.000000
   26       -9.167221   1.000000
   27       -9.058186   1.000000
   28       -9.058119   1.000000
   29       -8.930416   1.000000
   30       -8.930241   1.000000
   31       -8.904884   1.000000
   32       -8.904804   1.000000
   33       -8.718482   1.000000
   34       -8.717576   1.000000
   35       -8.607368   1.000000
   36       -8.606372   1.000000
   37       -8.466832   1.000000
   38       -8.465813   1.000000
   39       -8.451999   1.000000
   40       -8.451160   1.000000
   41       -8.369657   1.000000
   42       -8.368100   1.000000
   43       -8.335142   1.000000
   44       -8.333065   1.000000
   45       -8.110392   1.000000
   46       -8.109953   1.000000
   47       -8.102963   1.000000
   48       -8.102906   1.000000
   49       -7.918135   1.000000
   50       -7.913143   1.000000
   51       -7.907965   1.000000
   52       -7.903938   1.000000
   53       -7.803234   1.000000
   54       -7.799203   1.000000
   55       -7.796420   1.000000
   56       -7.793068   1.000000
   57       -7.544782   1.000000
   58       -7.540750   1.000000
   59       -7.525296   1.000000
   60       -7.520924   1.000000
   61       -7.138563   1.000000
   62       -7.135090   1.000000
   63       -7.122326   1.000000
   64       -7.118791   1.000000
   65       -6.970652   1.000000
   66       -6.968470   1.000000
   67       -6.907807   1.000000
   68       -6.906074   1.000000
   69       -6.875195   1.000000
   70       -6.874854   1.000000
   71       -6.761959   1.000000
   72       -6.761795   1.000000
   73       -6.015288   1.000000
   74       -6.015080   1.000000
   75       -5.864741   1.000000
   76       -5.864324   1.000000
   77       -5.798385   1.000000
   78       -5.797701   1.000000
   79       -5.750412   1.000000
   80       -5.749036   1.000000
   81       -5.728641   1.000000
   82       -5.728326   1.000000
   83       -5.669050   1.000000
   84       -5.668992   1.000000
   85       -5.585374   1.000000
   86       -5.581665   1.000000
   87       -5.563559   1.000000
   88       -5.561682   1.000000
   89       -5.487464   1.000000
   90       -5.482860   1.000000
   91       -5.468183   1.000000
   92       -5.465064   1.000000
   93       -5.394685   1.000000
   94       -5.394221   1.000000
   95       -5.356286   1.000000
   96       -5.354493   1.000000
   97       -5.333584   1.000000
   98       -5.329951   1.000000
   99       -5.213955   1.000000
  100       -5.213076   1.000000
  101       -4.926563   1.000000
  102       -4.926338   1.000000
  103       -4.878907   1.000000
  104       -4.878823   1.000000
  105       -4.745146   1.000000
  106       -4.741723   1.000000
  107       -4.722400   1.000000
  108       -4.718303   1.000000
  109       -4.591055   1.000000
  110       -4.586207   1.000000
  111       -4.573055   1.000000
  112       -4.568797   1.000000
  113       -4.412510   1.000000
  114       -4.412306   1.000000
  115       -4.324202   1.000000
  116       -4.323748   1.000000
  117       -4.238125   1.000000
  118       -4.235891   1.000000
  119       -4.223496   1.000000
  120       -4.221723   1.000000
  121       -2.692391   0.928413
  122       -2.691593   0.926859
  123       -2.682379   0.906996
  124       -2.681587   0.905119
  125       -2.352377   0.000412
  126       -2.351407   0.000392
  127       -2.342844   0.000251
  128       -2.341900   0.000239
  129       -2.045140   0.000000
  130       -2.043452   0.000000
  131       -2.041223   0.000000
  132       -2.039555   0.000000
  133       -1.779031   0.000000
  134       -1.778427   0.000000
  135       -1.769121   0.000000
  136       -1.768568   0.000000
  137        0.941545   0.000000
  138        0.941657   0.000000
  139        1.311785   0.000000
  140        1.311870   0.000000
  141        2.093001   0.000000
  142        2.093047   0.000000
  143        2.288436   0.000000
  144        2.288484   0.000000
  145        2.737175   0.000000
  146        2.737250   0.000000
  147        2.946147   0.000000
  148        2.946191   0.000000
  149        3.227078   0.000000
  150        3.227228   0.000000
  151        3.397760   0.000000
  152        3.400571   0.000000
 
 -0.3333333E-01  0.6666667E-01  0.0000000E+00  0.6535948E-02
    1      -18.858804   1.000000
    2      -18.858758   1.000000
    3      -18.722598   1.000000
    4      -18.722553   1.000000
    5      -18.073118   1.000000
    6      -18.073077   1.000000
    7      -18.071006   1.000000
    8      -18.070942   1.000000
    9      -18.049236   1.000000
   10      -18.049157   1.000000
   11      -18.040761   1.000000
   12      -18.040707   1.000000
   13      -18.033208   1.000000
   14      -18.033136   1.000000
   15      -17.921870   1.000000
   16      -17.921270   1.000000
   17      -17.919787   1.000000
   18      -17.919196   1.000000
   19      -17.905143   1.000000
   20      -17.905100   1.000000
   21      -17.878394   1.000000
   22      -17.878281   1.000000
   23      -17.876029   1.000000
   24      -17.875904   1.000000
   25       -9.169137   1.000000
   26       -9.169079   1.000000
   27       -9.058185   1.000000
   28       -9.058098   1.000000
   29       -8.929817   1.000000
   30       -8.929485   1.000000
   31       -8.905772   1.000000
   32       -8.905598   1.000000
   33       -8.719418   1.000000
   34       -8.718036   1.000000
   35       -8.607948   1.000000
   36       -8.606407   1.000000
   37       -8.466969   1.000000
   38       -8.465744   1.000000
   39       -8.448618   1.000000
   40       -8.447636   1.000000
   41       -8.368710   1.000000
   42       -8.366235   1.000000
   43       -8.336875   1.000000
   44       -8.333679   1.000000
   45       -8.110032   1.000000
   46       -8.109797   1.000000
   47       -8.099520   1.000000
   48       -8.099154   1.000000
   49       -7.921186   1.000000
   50       -7.914871   1.000000
   51       -7.907607   1.000000
   52       -7.902723   1.000000
   53       -7.805539   1.000000
   54       -7.801288   1.000000
   55       -7.795662   1.000000
   56       -7.792372   1.000000
   57       -7.546602   1.000000
   58       -7.541884   1.000000
   59       -7.521900   1.000000
   60       -7.516633   1.000000
   61       -7.157234   1.000000
   62       -7.154425   1.000000
   63       -7.129993   1.000000
   64       -7.126905   1.000000
   65       -6.953772   1.000000
   66       -6.951508   1.000000
   67       -6.881048   1.000000
   68       -6.879915   1.000000
   69       -6.867143   1.000000
   70       -6.866011   1.000000
   71       -6.754254   1.000000
   72       -6.754010   1.000000
   73       -6.027098   1.000000
   74       -6.026890   1.000000
   75       -5.877574   1.000000
   76       -5.877251   1.000000
   77       -5.813164   1.000000
   78       -5.812220   1.000000
   79       -5.753522   1.000000
   80       -5.751383   1.000000
   81       -5.726593   1.000000
   82       -5.726238   1.000000
   83       -5.681991   1.000000
   84       -5.681769   1.000000
   85       -5.591592   1.000000
   86       -5.585299   1.000000
   87       -5.562580   1.000000
   88       -5.558852   1.000000
   89       -5.493450   1.000000
   90       -5.487213   1.000000
   91       -5.466472   1.000000
   92       -5.462677   1.000000
   93       -5.391002   1.000000
   94       -5.390345   1.000000
   95       -5.360013   1.000000
   96       -5.357329   1.000000
   97       -5.333598   1.000000
   98       -5.329386   1.000000
   99       -5.207524   1.000000
  100       -5.206477   1.000000
  101       -4.921566   1.000000
  102       -4.921252   1.000000
  103       -4.874382   1.000000
  104       -4.874322   1.000000
  105       -4.745318   1.000000
  106       -4.740093   1.000000
  107       -4.722092   1.000000
  108       -4.716101   1.000000
  109       -4.596152   1.000000
  110       -4.589576   1.000000
  111       -4.578240   1.000000
  112       -4.572261   1.000000
  113       -4.404057   1.000000
  114       -4.403317   1.000000
  115       -4.319108   1.000000
  116       -4.318773   1.000000
  117       -4.236730   1.000000
  118       -4.233279   1.000000
  119       -4.221705   1.000000
  120       -4.218909   1.000000
  121       -2.692200   0.928043
  122       -2.690991   0.925670
  123       -2.681875   0.905804
  124       -2.680677   0.902926
  125       -2.358085   0.000550
  126       -2.357045   0.000522
  127       -2.344027   0.000268
  128       -2.343027   0.000254
  129       -2.045192   0.000000
  130       -2.042614   0.000000
  131       -2.041352   0.000000