 
             +---------------------------------------------------+
             |                                                   |
             |                   WANNIER90                       |
             |                                                   |
             +---------------------------------------------------+
             |                                                   |
             |        Welcome to the Maximally-Localized         |
             |        Generalized Wannier Functions code         |
             |            http://www.wannier.org                 |
             |                                                   |
             |                                                   |
             |  Wannier90 Developer Group:                       |
             |    Giovanni Pizzi    (EPFL)                       |
             |    Valerio Vitale    (Cambridge)                  |
             |    David Vanderbilt  (Rutgers University)         |
             |    Nicola Marzari    (EPFL)                       |
             |    Ivo Souza         (Universidad del Pais Vasco) |
             |    Arash A. Mostofi  (Imperial College London)    |
             |    Jonathan R. Yates (University of Oxford)       |
             |                                                   |
             |  For the full list of Wannier90 3.x authors,      |
             |  please check the code documentation and the      |
             |  README on the GitHub page of the code            |
             |                                                   |
             |                                                   |
             |  Please cite                                      |
             |                                                   |
             |  [ref] "An updated version of Wannier90:          |
             |        A Tool for Obtaining Maximally Localised   |
             |        Wannier Functions", A. A. Mostofi,         |
             |        J. R. Yates, G. Pizzi, Y. S. Lee,          |
             |        I. Souza, D. Vanderbilt and N. Marzari,    |
             |        Comput. Phys. Commun. 185, 2309 (2014)     |
             |        http://dx.doi.org/10.1016/j.cpc.2014.05.003|
             |                                                   |
             |  in any publications arising from the use of      |
             |  this code. For the method please cite            |
             |                                                   |
             |  [ref] "Maximally Localized Generalised Wannier   |
             |         Functions for Composite Energy Bands"     |
             |         N. Marzari and D. Vanderbilt              |
             |         Phys. Rev. B 56 12847 (1997)              |
             |                                                   |
             |  [ref] "Maximally Localized Wannier Functions     |
             |         for Entangled Energy Bands"               |
             |         I. Souza, N. Marzari and D. Vanderbilt    |
             |         Phys. Rev. B 65 035109 (2001)             |
             |                                                   |
             |                                                   |
             | Copyright (c) 1996-2019                           |
             |        The Wannier90 Developer Group and          |
             |        individual contributors                    |
             |                                                   |
             |      Release: 3.0.0       27th February 2019      |
             |                                                   |
             | This program is free software; you can            |
             | redistribute it and/or modify it under the terms  |
             | of the GNU General Public License as published by |
             | the Free Software Foundation; either version 2 of |
             | the License, or (at your option) any later version|
             |                                                   |
             | This program is distributed in the hope that it   |
             | will be useful, but WITHOUT ANY WARRANTY; without |
             | even the implied warranty of MERCHANTABILITY or   |
             | FITNESS FOR A PARTICULAR PURPOSE. See the GNU     |
             | General Public License for more details.          |
             |                                                   |
             | You should have received a copy of the GNU General|
             | Public License along with this program; if not,   |
             | write to the Free Software Foundation, Inc.,      |
             | 675 Mass Ave, Cambridge, MA 02139, USA.           |
             |                                                   |
             +---------------------------------------------------+
             |    Execution started on 19Feb2022 at 15:44:43     |
             +---------------------------------------------------+
 
 ******************************************************************************
 * -> Using CODATA 2006 constant values                                       *
 *    (http://physics.nist.gov/cuu/Constants/index.html)                      *
 * -> Using Bohr value from CODATA                                            *
 ******************************************************************************
 

 Running in serial (with parallel executable)
 
                                    ------
                                    SYSTEM
                                    ------
 
                              Lattice Vectors (Ang)
                    a_1     6.355400   0.000000   0.000000
                    a_2    -3.177700   5.503938   0.000000
                    a_3     0.000000   0.000000  29.991501
 
                   Unit Cell Volume:    1049.09453  (Ang^3)
 
                        Reciprocal-Space Vectors (Ang^-1)
                    b_1     0.988637   0.570790   0.000000
                    b_2     0.000000   1.141580   0.000000
                    b_3     0.000000   0.000000   0.209499
  
 *----------------------------------------------------------------------------*
 |   Site       Fractional Coordinate          Cartesian Coordinate (Ang)     |
 +----------------------------------------------------------------------------+
 | Pt   1   0.33333   0.66667   0.61797   |    0.00000   3.66929  18.53385    |
 | Pt   2   0.66667   0.33333   0.61797   |    3.17770   1.83465  18.53385    |
 | Pt   3   0.33333   0.66667   0.38203   |    0.00000   3.66929  11.45765    |
 | Pt   4   0.66667   0.33333   0.38203   |    3.17770   1.83465  11.45765    |
 | Cl   1   0.00000   0.64446   0.33705   |   -2.04790   3.54707  10.10864    |
 | Cl   2   0.35554   0.35554   0.33705   |    1.12980   1.95687  10.10864    |
 | Cl   3   0.64446   0.00000   0.33705   |    4.09580   0.00000  10.10864    |
 | Cl   4   0.00000   0.35542   0.42699   |   -1.12942   1.95621  12.80607    |
 | Cl   5   0.64458   0.64458   0.42699   |    2.04828   3.54773  12.80607    |
 | Cl   6   0.35542   0.00000   0.42699   |    2.25884   0.00000  12.80607    |
 | Cl   7   0.00000   0.64446   0.66295   |   -2.04790   3.54707  19.88287    |
 | Cl   8   0.35554   0.35554   0.66295   |    1.12980   1.95687  19.88287    |
 | Cl   9   0.64446   0.00000   0.66295   |    4.09580   0.00000  19.88287    |
 | Cl  10   0.00000   0.35542   0.57301   |   -1.12942   1.95621  17.18543    |
 | Cl  11   0.64458   0.64458   0.57301   |    2.04828   3.54773  17.18543    |
 | Cl  12   0.35542   0.00000   0.57301   |    2.25884   0.00000  17.18543    |
 *----------------------------------------------------------------------------*
                                -----------
                                PROJECTIONS
                                -----------
  
 +----------------------------------------------------------------------------+
 |     Frac. Coord.   l mr  r        z-axis               x-axis          Z/a |
 +----------------------------------------------------------------------------+
 |  0.33  0.67  0.62  2  1  1  0.000  0.000  1.000  1.000  0.000  0.000   1.0 |
 |  0.33  0.67  0.62  2  1  1  0.000  0.000  1.000  1.000  0.000  0.000   1.0 |
 |  0.33  0.67  0.62  2  2  1  0.000  0.000  1.000  1.000  0.000  0.000   1.0 |
 |  0.33  0.67  0.62  2  2  1  0.000  0.000  1.000  1.000  0.000  0.000   1.0 |
 |  0.33  0.67  0.62  2  3  1  0.000  0.000  1.000  1.000  0.000  0.000   1.0 |
 |  0.33  0.67  0.62  2  3  1  0.000  0.000  1.000  1.000  0.000  0.000   1.0 |
 |  0.33  0.67  0.62  2  4  1  0.000  0.000  1.000  1.000  0.000  0.000   1.0 |
 |  0.33  0.67  0.62  2  4  1  0.000  0.000  1.000  1.000  0.000  0.000   1.0 |
 |  0.33  0.67  0.62  2  5  1  0.000  0.000  1.000  1.000  0.000  0.000   1.0 |
 |  0.33  0.67  0.62  2  5  1  0.000  0.000  1.000  1.000  0.000  0.000   1.0 |
 |  0.67  0.33  0.62  2  1  1  0.000  0.000  1.000  1.000  0.000  0.000   1.0 |
 |  0.67  0.33  0.62  2  1  1  0.000  0.000  1.000  1.000  0.000  0.000   1.0 |
 |  0.67  0.33  0.62  2  2  1  0.000  0.000  1.000  1.000  0.000  0.000   1.0 |
 |  0.67  0.33  0.62  2  2  1  0.000  0.000  1.000  1.000  0.000  0.000   1.0 |
 |  0.67  0.33  0.62  2  3  1  0.000  0.000  1.000  1.000  0.000  0.000   1.0 |
 |  0.67  0.33  0.62  2  3  1  0.000  0.000  1.000  1.000  0.000  0.000   1.0 |
 |  0.67  0.33  0.62  2  4  1  0.000  0.000  1.000  1.000  0.000  0.000   1.0 |
 |  0.67  0.33  0.62  2  4  1  0.000  0.000  1.000  1.000  0.000  0.000   1.0 |
 |  0.67  0.33  0.62  2  5  1  0.000  0.000  1.000  1.000  0.000  0.000   1.0 |
 |  0.67  0.33  0.62  2  5  1  0.000  0.000  1.000  1.000  0.000  0.000   1.0 |
 |  0.33  0.67  0.38  2  1  1  0.000  0.000  1.000  1.000  0.000  0.000   1.0 |
 |  0.33  0.67  0.38  2  1  1  0.000  0.000  1.000  1.000  0.000  0.000   1.0 |
 |  0.33  0.67  0.38  2  2  1  0.000  0.000  1.000  1.000  0.000  0.000   1.0 |
 |  0.33  0.67  0.38  2  2  1  0.000  0.000  1.000  1.000  0.000  0.000   1.0 |
 |  0.33  0.67  0.38  2  3  1  0.000  0.000  1.000  1.000  0.000  0.000   1.0 |
 |  0.33  0.67  0.38  2  3  1  0.000  0.000  1.000  1.000  0.000  0.000   1.0 |
 |  0.33  0.67  0.38  2  4  1  0.000  0.000  1.000  1.000  0.000  0.000   1.0 |
 |  0.33  0.67  0.38  2  4  1  0.000  0.000  1.000  1.000  0.000  0.000   1.0 |
 |  0.33  0.67  0.38  2  5  1  0.000  0.000  1.000  1.000  0.000  0.000   1.0 |
 |  0.33  0.67  0.38  2  5  1  0.000  0.000  1.000  1.000  0.000  0.000   1.0 |
 |  0.67  0.33  0.38  2  1  1  0.000  0.000  1.000  1.000  0.000  0.000   1.0 |
 |  0.67  0.33  0.38  2  1  1  0.000  0.000  1.000  1.000  0.000  0.000   1.0 |
 |  0.67  0.33  0.38  2  2  1  0.000  0.000  1.000  1.000  0.000  0.000   1.0 |
 |  0.67  0.33  0.38  2  2  1  0.000  0.000  1.000  1.000  0.000  0.000   1.0 |
 |  0.67  0.33  0.38  2  3  1  0.000  0.000  1.000  1.000  0.000  0.000   1.0 |
 |  0.67  0.33  0.38  2  3  1  0.000  0.000  1.000  1.000  0.000  0.000   1.0 |
 |  0.67  0.33  0.38  2  4  1  0.000  0.000  1.000  1.000  0.000  0.000   1.0 |
 |  0.67  0.33  0.38  2  4  1  0.000  0.000  1.000  1.000  0.000  0.000   1.0 |
 |  0.67  0.33  0.38  2  5  1  0.000  0.000  1.000  1.000  0.000  0.000   1.0 |
 |  0.67  0.33  0.38  2  5  1  0.000  0.000  1.000  1.000  0.000  0.000   1.0 |
 +----------------------------------------------------------------------------+
  
                                ------------
                                K-POINT GRID
                                ------------
  
             Grid size =  9 x  9 x  1      Total points =   81
  
 *----------------------------------------------------------------------------*
 | k-point      Fractional Coordinate        Cartesian Coordinate (Ang^-1)    |
 +----------------------------------------------------------------------------+
 |     1    0.00000   0.00000   0.00000   |    0.00000   0.00000   0.00000    |
 |     2    0.11111   0.00000   0.00000   |    0.10985   0.06342   0.00000    |
 |     3    0.22222   0.00000   0.00000   |    0.21970   0.12684   0.00000    |
 |     4    0.33333   0.00000   0.00000   |    0.32955   0.19026   0.00000    |
 |     5    0.44444   0.00000   0.00000   |    0.43939   0.25368   0.00000    |
 |     6   -0.44444   0.00000   0.00000   |   -0.43939  -0.25368   0.00000    |
 |     7   -0.33333   0.00000   0.00000   |   -0.32955  -0.19026   0.00000    |
 |     8   -0.22222   0.00000   0.00000   |   -0.21970  -0.12684   0.00000    |
 |     9   -0.11111   0.00000   0.00000   |   -0.10985  -0.06342   0.00000    |
 |    10    0.00000   0.11111   0.00000   |    0.00000   0.12684   0.00000    |
 |    11    0.11111   0.11111   0.00000   |    0.10985   0.19026   0.00000    |
 |    12    0.22222   0.11111   0.00000   |    0.21970   0.25368   0.00000    |
 |    13    0.33333   0.11111   0.00000   |    0.32955   0.31711   0.00000    |
 |    14    0.44444   0.11111   0.00000   |    0.43939   0.38053   0.00000    |
 |    15   -0.44444   0.11111   0.00000   |   -0.43939  -0.12684   0.00000    |
 |    16   -0.33333   0.11111   0.00000   |   -0.32955  -0.06342   0.00000    |
 |    17   -0.22222   0.11111   0.00000   |   -0.21970   0.00000   0.00000    |
 |    18   -0.11111   0.11111   0.00000   |   -0.10985   0.06342   0.00000    |
 |    19    0.00000   0.22222   0.00000   |    0.00000   0.25368   0.00000    |
 |    20    0.11111   0.22222   0.00000   |    0.10985   0.31711   0.00000    |
 |    21    0.22222   0.22222   0.00000   |    0.21970   0.38053   0.00000    |
 |    22    0.33333   0.22222   0.00000   |    0.32955   0.44395   0.00000    |
 |    23    0.44444   0.22222   0.00000   |    0.43939   0.50737   0.00000    |
 |    24   -0.44444   0.22222   0.00000   |   -0.43939   0.00000   0.00000    |
 |    25   -0.33333   0.22222   0.00000   |   -0.32955   0.06342   0.00000    |
 |    26   -0.22222   0.22222   0.00000   |   -0.21970   0.12684   0.00000    |
 |    27   -0.11111   0.22222   0.00000   |   -0.10985   0.19026   0.00000    |
 |    28    0.00000   0.33333   0.00000   |    0.00000   0.38053   0.00000    |
 |    29    0.11111   0.33333   0.00000   |    0.10985   0.44395   0.00000    |
 |    30    0.22222   0.33333   0.00000   |    0.21970   0.50737   0.00000    |
 |    31    0.33333   0.33333   0.00000   |    0.32955   0.57079   0.00000    |
 |    32    0.44444   0.33333   0.00000   |    0.43939   0.63421   0.00000    |
 |    33   -0.44444   0.33333   0.00000   |   -0.43939   0.12684   0.00000    |
 |    34   -0.33333   0.33333   0.00000   |   -0.32955   0.19026   0.00000    |
 |    35   -0.22222   0.33333   0.00000   |   -0.21970   0.25368   0.00000    |
 |    36   -0.11111   0.33333   0.00000   |   -0.10985   0.31711   0.00000    |
 |    37    0.00000   0.44444   0.00000   |    0.00000   0.50737   0.00000    |
 |    38    0.11111   0.44444   0.00000   |    0.10985   0.57079   0.00000    |
 |    39    0.22222   0.44444   0.00000   |    0.21970   0.63421   0.00000    |
 |    40    0.33333   0.44444   0.00000   |    0.32955   0.69763   0.00000    |
 |    41    0.44444   0.44444   0.00000   |    0.43939   0.76105   0.00000    |
 |    42   -0.44444   0.44444   0.00000   |   -0.43939   0.25368   0.00000    |
 |    43   -0.33333   0.44444   0.00000   |   -0.32955   0.31711   0.00000    |
 |    44   -0.22222   0.44444   0.00000   |   -0.21970   0.38053   0.00000    |
 |    45   -0.11111   0.44444   0.00000   |   -0.10985   0.44395   0.00000    |
 |    46    0.00000  -0.44444   0.00000   |    0.00000  -0.50737   0.00000    |
 |    47    0.11111  -0.44444   0.00000   |    0.10985  -0.44395   0.00000    |
 |    48    0.22222  -0.44444   0.00000   |    0.21970  -0.38053   0.00000    |
 |    49    0.33333  -0.44444   0.00000   |    0.32955  -0.31711   0.00000    |
 |    50    0.44444  -0.44444   0.00000   |    0.43939  -0.25368   0.00000    |
 |    51   -0.44444  -0.44444   0.00000   |   -0.43939  -0.76105   0.00000    |
 |    52   -0.33333  -0.44444   0.00000   |   -0.32955  -0.69763   0.00000    |
 |    53   -0.22222  -0.44444   0.00000   |   -0.21970  -0.63421   0.00000    |
 |    54   -0.11111  -0.44444   0.00000   |   -0.10985  -0.57079   0.00000    |
 |    55    0.00000  -0.33333   0.00000   |    0.00000  -0.38053   0.00000    |
 |    56    0.11111  -0.33333   0.00000   |    0.10985  -0.31711   0.00000    |
 |    57    0.22222  -0.33333   0.00000   |    0.21970  -0.25368   0.00000    |
 |    58    0.33333  -0.33333   0.00000   |    0.32955  -0.19026   0.00000    |
 |    59    0.44444  -0.33333   0.00000   |    0.43939  -0.12684   0.00000    |
 |    60   -0.44444  -0.33333   0.00000   |   -0.43939  -0.63421   0.00000    |
 |    61   -0.33333  -0.33333   0.00000   |   -0.32955  -0.57079   0.00000    |
 |    62   -0.22222  -0.33333   0.00000   |   -0.21970  -0.50737   0.00000    |
 |    63   -0.11111  -0.33333   0.00000   |   -0.10985  -0.44395   0.00000    |
 |    64    0.00000  -0.22222   0.00000   |    0.00000  -0.25368   0.00000    |
 |    65    0.11111  -0.22222   0.00000   |    0.10985  -0.19026   0.00000    |
 |    66    0.22222  -0.22222   0.00000   |    0.21970  -0.12684   0.00000    |
 |    67    0.33333  -0.22222   0.00000   |    0.32955  -0.06342   0.00000    |
 |    68    0.44444  -0.22222   0.00000   |    0.43939  -0.00000   0.00000    |
 |    69   -0.44444  -0.22222   0.00000   |   -0.43939  -0.50737   0.00000    |
 |    70   -0.33333  -0.22222   0.00000   |   -0.32955  -0.44395   0.00000    |
 |    71   -0.22222  -0.22222   0.00000   |   -0.21970  -0.38053   0.00000    |
 |    72   -0.11111  -0.22222   0.00000   |   -0.10985  -0.31711   0.00000    |
 |    73    0.00000  -0.11111   0.00000   |    0.00000  -0.12684   0.00000    |
 |    74    0.11111  -0.11111   0.00000   |    0.10985  -0.06342   0.00000    |
 |    75    0.22222  -0.11111   0.00000   |    0.21970  -0.00000   0.00000    |
 |    76    0.33333  -0.11111   0.00000   |    0.32955   0.06342   0.00000    |
 |    77    0.44444  -0.11111   0.00000   |    0.43939   0.12684   0.00000    |
 |    78   -0.44444  -0.11111   0.00000   |   -0.43939  -0.38053   0.00000    |
 |    79   -0.33333  -0.11111   0.00000   |   -0.32955  -0.31711   0.00000    |
 |    80   -0.22222  -0.11111   0.00000   |   -0.21970  -0.25368   0.00000    |
 |    81   -0.11111  -0.11111   0.00000   |   -0.10985  -0.19026   0.00000    |
 *----------------------------------------------------------------------------*
  
  
 *---------------------------------- MAIN ------------------------------------*
 |  Number of Wannier Functions               :                40             |
 |  Number of Objective Wannier Functions     :                40             |
 |  Number of input Bloch states              :                42             |
 |  Output verbosity (1=low, 5=high)          :                 2             |
 |  Timing Level (1=low, 5=high)              :                 1             |
 |  Optimisation (0=memory, 3=speed)          :                 3             |
 |  Length Unit                               :               Ang             |
 |  Post-processing setup (write *.nnkp)      :                 F             |
 |  Using Gamma-only branch of algorithms     :                 F             |
 *----------------------------------------------------------------------------*
 *------------------------------- WANNIERISE ---------------------------------*
 |  Total number of iterations                :                 0             |
 |  Number of CG steps before reset           :                 5             |
 |  Trial step length for line search         :             2.000             |
 |  Convergence tolerence                     :         0.100E-09             |
 |  Convergence window                        :                -1             |
 |  Iterations between writing output         :                 0             |
 |  Iterations between backing up to disk     :               100             |
 |  Write r^2_nm to file                      :                 F             |
 |  Write xyz WF centres to file              :                 F             |
 |  Write on-site energies <0n|H|0n> to file  :                 F             |
 |  Use guiding centre to control phases      :                 T             |
 |  Use phases for initial projections        :                 F             |
 |  Iterations before starting guiding centres:                 0             |
 |  Iterations between using guiding centres  :                 1             |
 *----------------------------------------------------------------------------*
 *------------------------------- DISENTANGLE --------------------------------*
 |  Using band disentanglement                :                 T             |
 |  Total number of iterations                :               200             |
 |  Mixing ratio                              :             0.500             |
 |  Convergence tolerence                     :         1.000E-10             |
 |  Convergence window                        :                 0             |
 *----------------------------------------------------------------------------*
 *-------------------------------- PLOTTING ----------------------------------*
 |  Plotting interpolated bandstructure       :                 T             |
 |   Number of K-path sections                :                 3             |
 |   Divisions along first K-path section     :               100             |
 |   Output format                            :           gnuplot             |
 |   Output mode                              :               s-k             |
 *----------------------------------------------------------------------------*
 |   K-space path sections:                                                   |
 |    From: G       0.000  0.000  0.000     To: K      -0.333  0.667  0.000   |
 |    From: K      -0.333  0.667  0.000     To: M       0.000  0.500  0.000   |
 |    From: M       0.000  0.500  0.000     To: G       0.000  0.000  0.000   |
 *----------------------------------------------------------------------------*
 |  Plotting Hamiltonian in WF basis          :                 T             |
 *----------------------------------------------------------------------------*
 Time to read parameters        0.022 (sec)

 *---------------------------------- K-MESH ----------------------------------*
 +----------------------------------------------------------------------------+
 |                    Distance to Nearest-Neighbour Shells                    |
 |                    ------------------------------------                    |
 |          Shell             Distance (Ang^-1)          Multiplicity         |
 |          -----             -----------------          ------------         |
 |             1                   0.126842                      6            |
 |             2                   0.209499                      2            |
 |             3                   0.219697                      6            |
 |             4                   0.244906                     12            |
 |             5                   0.253684                      6            |
 |             6                   0.303573                     12            |
 |             7                   0.329007                     12            |
 |             8                   0.335593                     12            |
 |             9                   0.380527                      6            |
 |            10                   0.395616                     24            |
 |            11                   0.418998                      2            |
 |            12                   0.434385                     12            |
 |            13                   0.437776                     12            |
 |            14                   0.439394                      6            |
 |            15                   0.457336                     12            |
 |            16                   0.473102                     12            |
 |            17                   0.486782                     12            |
 |            18                   0.489811                     12            |
 |            19                   0.503037                     24            |
 |            20                   0.507369                      6            |
 |            21                   0.536826                     24            |
 |            22                   0.548920                     12            |
 |            23                   0.552892                     12            |
 |            24                   0.566003                     12            |
 |            25                   0.581264                     12            |
 |            26                   0.591253                     24            |
 |            27                   0.607146                     12            |
 |            28                   0.617865                     24            |
 |            29                   0.620254                     24            |
 |            30                   0.628497                      2            |
 |            31                   0.634211                      6            |
 |            32                   0.641168                     12            |
 |            33                   0.658014                     12            |
 |            34                   0.659092                      6            |
 |            35                   0.665789                     12            |
 |            36                   0.667917                     12            |
 +----------------------------------------------------------------------------+
 | The b-vectors are chosen automatically                                     |
 | Shell:  1 w_b   20.7181551      (Ang^2)                                    |
 | Shell:  1 w_b   20.7181551      (Ang^2)                                    |
 | Shell:  2 w_b   11.3921755      (Ang^2)                                    |
 | The following shells are used:   1,  2                                     |
 +----------------------------------------------------------------------------+
 |                        Shell   # Nearest-Neighbours                        |
 |                        -----   --------------------                        |
 |                          1               6                                 |
 |                          2               2                                 |
 +----------------------------------------------------------------------------+
 | Completeness relation is fully satisfied [Eq. (B1), PRB 56, 12847 (1997)]  |
 +----------------------------------------------------------------------------+
 |                  b_k Vectors (Ang^-1) and Weights (Ang^2)                  |
 |                  ----------------------------------------                  |
 |            No.         b_k(x)      b_k(y)      b_k(z)        w_b           |
 |            ---        --------------------------------     --------        |
 |             1         0.109849    0.063421    0.000000    20.718155        |
 |             2        -0.109849   -0.063421    0.000000    20.718155        |
 |             3         0.000000    0.126842    0.000000    20.718155        |
 |             4        -0.109849    0.063421    0.000000    20.718155        |
 |             5         0.000000   -0.126842    0.000000    20.718155        |
 |             6         0.109849   -0.063421    0.000000    20.718155        |
 |             7         0.000000    0.000000    0.209499    11.392176        |
 |             8         0.000000    0.000000   -0.209499    11.392176        |
 +----------------------------------------------------------------------------+
 |                           b_k Directions (Ang^-1)                          |
 |                           -----------------------                          |
 |            No.           x           y           z                         |
 |            ---        --------------------------------                     |
 |             1         0.109849    0.063421    0.000000                     |
 |             2         0.000000    0.126842    0.000000                     |
 |             3        -0.109849    0.063421    0.000000                     |
 |             4         0.000000    0.000000    0.209499                     |
 +----------------------------------------------------------------------------+
  
 Time to get kmesh              0.068 (sec)
 *============================================================================*
 |                              MEMORY ESTIMATE                               |
 |         Maximum RAM allocated during each phase of the calculation         |
 *============================================================================*
 |                        Disentanglement           39.52 Mb                  |
 |                            Wannierise:           42.82 Mb                  |
 |                                                                            |
 |   N.B. by setting optimisation=0 memory usage will be reduced to:          |
 |                        Disentanglement           28.18 Mb                  |
 |                            Wannierise:           27.00 Mb                  |
 |   However, this will result in more i/o and slow down the calculation      |
 |                          plot_wannier:           42.82 Mb                  |
 *----------------------------------------------------------------------------*
  
 Starting a new Wannier90 calculation ...


 Reading overlaps from wannier90.mmn    : File generated by VASP: PtCl3

 Reading projections from wannier90.amn : File generated by VASP: PtCl3

 Time to read overlaps          0.994 (sec)

 *------------------------------- DISENTANGLE --------------------------------*
 +----------------------------------------------------------------------------+
 |                              Energy  Windows                               |
 |                              ---------------                               |
 |                   Outer:   -2.74470  to    0.83616  (eV)                   |
 |                   Inner:   -2.51774  to    0.67539  (eV)                   |
 +----------------------------------------------------------------------------+
 |                        K-points with Frozen States                         |
 |                        ---------------------------                         |
 |     1     2     3     4     5     6     7     8     9    10    11    12    |
 |    13    14    15    16    17    18    19    20    21    22    23    24    |
 |    25    26    27    28    29    30    31    32    33    34    35    36    |
 |    37    38    39    40    41    42    43    44    45    46    47    48    |
 |    49    50    51    52    53    54    55    56    57    58    59    60    |
 |    61    62    63    64    65    66    67    68    69    70    71    72    |
 |    73    74    75    76    77    78    79    80    81                      |
 +----------------------------------------------------------------------------+
   Number of target bands to extract:   40
 +----------------------------------------------------------------------------+
 |                                  Windows                                   |
 |                                  -------                                   |
 |               K-point      Ndimwin     Ndimfroz    Nfirstwin               |
 |               ----------------------------------------------               |
 |                   1           40           32           3                  |
 |                   2           40           32           3                  |
 |                   3           42           36           1                  |
 |                   4           40           36           3                  |
 |                   5           40           34           3                  |
 |                   6           40           34           3                  |
 |                   7           40           36           3                  |
 |                   8           42           36           1                  |
 |                   9           40           32           3                  |
 |                  10           40           32           3                  |
 |                  11           42           34           1                  |
 |                  12           42           36           1                  |
 |                  13           42           36           1                  |
 |                  14           42           36           1                  |
 |                  15           42           36           1                  |
 |                  16           42           36           1                  |
 |                  17           42           34           1                  |
 |                  18           40           32           3                  |
 |                  19           41           36           2                  |
 |                  20           42           36           1                  |
 |                  21           42           36           1                  |
 |                  22           42           34           1                  |
 |                  23           42           34           1                  |
 |                  24           42           36           1                  |
 |                  25           42           36           1                  |
 |                  26           42           36           1                  |
 |                  27           42           34           1                  |
 |                  28           40           36           3                  |
 |                  29           42           36           1                  |
 |                  30           42           34           1                  |
 |                  31           40           34           3                  |
 |                  32           42           34           1                  |
 |                  33           42           36           1                  |
 |                  34           40           36           3                  |
 |                  35           42           36           1                  |
 |                  36           42           36           1                  |
 |                  37           40           34           3                  |
 |                  38           42           36           1                  |
 |                  39           42           34           1                  |
 |                  40           42           34           1                  |
 |                  41           42           36           1                  |
 |                  42           40           34           3                  |
 |                  43           42           36           1                  |
 |                  44           42           36           1                  |
 |                  45           42           36           1                  |
 |                  46           40           34           3                  |
 |                  47           42           36           1                  |
 |                  48           42           36           1                  |
 |                  49           42           36           1                  |
 |                  50           40           34           3                  |
 |                  51           42           36           1                  |
 |                  52           42           34           1                  |
 |                  53           42           34           1                  |
 |                  54           42           36           1                  |
 |                  55           40           36           3                  |
 |                  56           42           36           1                  |
 |                  57           42           36           1                  |
 |                  58           40           36           3                  |
 |                  59           42           36           1                  |
 |                  60           42           34           1                  |
 |                  61           40           34           3                  |
 |                  62           42           34           1                  |
 |                  63           42           36           1                  |
 |                  64           41           36           2                  |
 |                  65           42           34           1                  |
 |                  66           42           36           1                  |
 |                  67           42           36           1                  |
 |                  68           42           36           1                  |
 |                  69           42           34           1                  |
 |                  70           42           34           1                  |
 |                  71           42           36           1                  |
 |                  72           42           36           1                  |
 |                  73           40           32           3                  |
 |                  74           40           32           3                  |
 |                  75           42           34           1                  |
 |                  76           42           36           1                  |
 |                  77           42           36           1                  |
 |                  78           42           36           1                  |
 |                  79           42           36           1                  |
 |                  80           42           36           1                  |
 |                  81           42           34           1                  |
 +----------------------------------------------------------------------------+

                   Unitarised projection of Wannier functions                  
                   ------------------------------------------                  
   A_mn = <psi_m|g_n> --> S = A.A^+ --> U = S^-1/2.A
   In dis_project... done
   Using an inner window (linner = T)
   In dis_proj_froz... done

                   Extraction of optimally-connected subspace                  
                   ------------------------------------------                  
 +---------------------------------------------------------------------+<-- DIS
 |  Iter     Omega_I(i-1)      Omega_I(i)      Delta (frac.)    Time   |<-- DIS
 +---------------------------------------------------------------------+<-- DIS
       1     288.83026902     279.67780002       3.273E-02      0.00    <-- DIS

             <<<      Delta < 1.000E-10  over  0 iterations     >>>
             <<< Disentanglement convergence criteria satisfied >>>

        Final Omega_I   279.67780002 (Ang^2)

 +----------------------------------------------------------------------------+

 Time to disentangle bands      0.277 (sec)

 done

 
 *------------------------------- WANNIERISE ---------------------------------*
 +--------------------------------------------------------------------+<-- CONV
 | Iter  Delta Spread     RMS Gradient      Spread (Ang^2)      Time  |<-- CONV
 +--------------------------------------------------------------------+<-- CONV
 
 ------------------------------------------------------------------------------
 Initial State
  WF centre and spread    1  (  0.058867,  3.687964, 18.407288 )    22.07794542
  WF centre and spread    2  ( -0.065844,  3.672215, 18.402800 )    22.04092071
  WF centre and spread    3  (  0.030340,  3.336632, 18.486869 )    11.44915020
  WF centre and spread    4  ( -0.027751,  3.338311, 18.497745 )    11.49308472
  WF centre and spread    5  ( -0.049991,  4.015672, 18.511106 )    11.28730271
  WF centre and spread    6  (  0.035911,  4.008191, 18.497961 )    11.29711803
  WF centre and spread    7  (  0.027840,  3.369752, 18.508104 )    13.68081271
  WF centre and spread    8  ( -0.030592,  3.376101, 18.488163 )    13.67064604
  WF centre and spread    9  ( -0.016947,  3.979229, 18.496237 )    13.61418373
  WF centre and spread   10  (  0.005537,  3.987983, 18.512074 )    13.60541946
  WF centre and spread   11  (  3.116851,  1.832269, 18.403684 )    22.00873702
  WF centre and spread   12  (  3.239693,  1.823158, 18.409023 )    22.10046573
  WF centre and spread   13  (  3.149175,  2.168460, 18.498611 )    11.49554327
  WF centre and spread   14  (  3.208512,  2.165415, 18.486881 )    11.45205011
  WF centre and spread   15  (  3.215264,  1.495035, 18.498068 )    11.29040164
  WF centre and spread   16  (  3.129748,  1.490267, 18.511351 )    11.28137481
  WF centre and spread   17  (  3.146896,  2.128616, 18.487418 )    13.66914647
  WF centre and spread   18  (  3.205670,  2.133926, 18.508226 )    13.68226714
  WF centre and spread   19  (  3.183281,  1.515251, 18.512264 )    13.59175996
  WF centre and spread   20  (  3.160189,  1.526987, 18.496467 )    13.62008943
  WF centre and spread   21  (  0.058998,  3.686759, 11.583173 )    22.10028717
  WF centre and spread   22  ( -0.062022,  3.672512, 11.588370 )    22.02327663
  WF centre and spread   23  (  0.031044,  3.337912, 11.504598 )    11.45596731
  WF centre and spread   24  ( -0.028073,  3.338082, 11.493133 )    11.49040501
  WF centre and spread   25  ( -0.048966,  4.015233, 11.480453 )    11.28547789
  WF centre and spread   26  (  0.036422,  4.008531, 11.493742 )    11.29583729
  WF centre and spread   27  (  0.028241,  3.370191, 11.483414 )    13.69083332
  WF centre and spread   28  ( -0.030658,  3.376144, 11.503836 )    13.66777839
  WF centre and spread   29  ( -0.017045,  3.978428, 11.495539 )    13.62541072
  WF centre and spread   30  (  0.005526,  3.987986, 11.479684 )    13.60103113
  WF centre and spread   31  (  3.113043,  1.831792, 11.588679 )    22.05051561
  WF centre and spread   32  (  3.239180,  1.819364, 11.584235 )    22.10793813
  WF centre and spread   33  (  3.149699,  2.167219, 11.493605 )    11.51213414
  WF centre and spread   34  (  3.207939,  2.166217, 11.505119 )    11.45711965
  WF centre and spread   35  (  3.214472,  1.495208, 11.493553 )    11.30251193
  WF centre and spread   36  (  3.128823,  1.489656, 11.480485 )    11.28986303
  WF centre and spread   37  (  3.147143,  2.128603, 11.503778 )    13.68606182
  WF centre and spread   38  (  3.205316,  2.134111, 11.483715 )    13.68844092
  WF centre and spread   39  (  3.183148,  1.515503, 11.479394 )    13.60606049
  WF centre and spread   40  (  3.160293,  1.526433, 11.495219 )    13.62314573
  Sum of centres and spreads ( 63.445168,110.097319,599.834068 )   576.96851560
 
      0     0.577E+03     0.0000000000      576.9685144541       0.15  <-- CONV
        O_D=      6.5650093 O_OD=    290.7257052 O_TOT=    576.9685145 <-- SPRD
 ------------------------------------------------------------------------------
 Final State
  WF centre and spread    1  (  0.058867,  3.687964, 18.407288 )    22.07794542
  WF centre and spread    2  ( -0.065844,  3.672215, 18.402800 )    22.04092071
  WF centre and spread    3  (  0.030340,  3.336632, 18.486869 )    11.44915020
  WF centre and spread    4  ( -0.027751,  3.338311, 18.497745 )    11.49308472
  WF centre and spread    5  ( -0.049991,  4.015672, 18.511106 )    11.28730271
  WF centre and spread    6  (  0.035911,  4.008191, 18.497961 )    11.29711803
  WF centre and spread    7  (  0.027840,  3.369752, 18.508104 )    13.68081271
  WF centre and spread    8  ( -0.030592,  3.376101, 18.488163 )    13.67064604
  WF centre and spread    9  ( -0.016947,  3.979229, 18.496237 )    13.61418373
  WF centre and spread   10  (  0.005537,  3.987983, 18.512074 )    13.60541946
  WF centre and spread   11  (  3.116851,  1.832269, 18.403684 )    22.00873702
  WF centre and spread   12  (  3.239693,  1.823158, 18.409023 )    22.10046573
  WF centre and spread   13  (  3.149175,  2.168460, 18.498611 )    11.49554327
  WF centre and spread   14  (  3.208512,  2.165415, 18.486881 )    11.45205011
  WF centre and spread   15  (  3.215264,  1.495035, 18.498068 )    11.29040164
  WF centre and spread   16  (  3.129748,  1.490267, 18.511351 )    11.28137481
  WF centre and spread   17  (  3.146896,  2.128616, 18.487418 )    13.66914647
  WF centre and spread   18  (  3.205670,  2.133926, 18.508226 )    13.68226714
  WF centre and spread   19  (  3.183281,  1.515251, 18.512264 )    13.59175996
  WF centre and spread   20  (  3.160189,  1.526987, 18.496467 )    13.62008943
  WF centre and spread   21  (  0.058998,  3.686759, 11.583173 )    22.10028717
  WF centre and spread   22  ( -0.062022,  3.672512, 11.588370 )    22.02327663
  WF centre and spread   23  (  0.031044,  3.337912, 11.504598 )    11.45596731
  WF centre and spread   24  ( -0.028073,  3.338082, 11.493133 )    11.49040501
  WF centre and spread   25  ( -0.048966,  4.015233, 11.480453 )    11.28547789
  WF centre and spread   26  (  0.036422,  4.008531, 11.493742 )    11.29583729
  WF centre and spread   27  (  0.028241,  3.370191, 11.483414 )    13.69083332
  WF centre and spread   28  ( -0.030658,  3.376144, 11.503836 )    13.66777839
  WF centre and spread   29  ( -0.017045,  3.978428, 11.495539 )    13.62541072
  WF centre and spread   30  (  0.005526,  3.987986, 11.479684 )    13.60103113
  WF centre and spread   31  (  3.113043,  1.831792, 11.588679 )    22.05051561
  WF centre and spread   32  (  3.239180,  1.819364, 11.584235 )    22.10793813
  WF centre and spread   33  (  3.149699,  2.167219, 11.493605 )    11.51213414
  WF centre and spread   34  (  3.207939,  2.166217, 11.505119 )    11.45711965
  WF centre and spread   35  (  3.214472,  1.495208, 11.493553 )    11.30251193
  WF centre and spread   36  (  3.128823,  1.489656, 11.480485 )    11.28986303
  WF centre and spread   37  (  3.147143,  2.128603, 11.503778 )    13.68606182
  WF centre and spread   38  (  3.205316,  2.134111, 11.483715 )    13.68844092
  WF centre and spread   39  (  3.183148,  1.515503, 11.479394 )    13.60606049
  WF centre and spread   40  (  3.160293,  1.526433, 11.495219 )    13.62314573
  Sum of centres and spreads ( 63.445168,110.097319,599.834068 )   576.96851560
 
         Spreads (Ang^2)       Omega I      =   279.677800019
        ================       Omega D      =     6.565009285
                               Omega OD     =   290.725705150
    Final Spread (Ang^2)       Omega Total  =   576.968514454
 ------------------------------------------------------------------------------

 ------------------------------------------------------------------------------
          Projection of Bands in Outer Window on all Wannier Functions
         --------------------------------------------------------------
                    Kpt  Band      Eigval      |Projection|^2
                 -----------------------------------------------
                     1     3      -2.734888      1.00000000
                     1     4      -2.734491      1.00000000
                     1     5      -2.634783      1.00000000
                     1     6      -2.633547      1.00000000
                     1     7      -2.345799      1.00000000
                     1     8      -2.345660      1.00000000
                     1     9      -2.297116      1.00000000
                     1    10      -2.296812      1.00000000
                     1    11      -2.154740      1.00000000
                     1    12      -2.154364      1.00000000
                     1    13      -2.131991      1.00000000
                     1    14      -2.131666      1.00000000
                     1    15      -1.989241      1.00000000
                     1    16      -1.989140      1.00000000
                     1    17      -1.971043      1.00000000
                     1    18      -1.970942      1.00000000
                     1    19      -1.839978      1.00000000
                     1    20      -1.839765      1.00000000
                     1    21      -1.743411      1.00000000
                     1    22      -1.743043      1.00000000
                     1    23      -1.650202      1.00000000
                     1    24      -1.650094      1.00000000
                     1    25      -1.635931      1.00000000
                     1    26      -1.635851      1.00000000
                     1    27      -0.102376      1.00000000
                     1    28      -0.102202      1.00000000
                     1    29      -0.092492      1.00000000
                     1    30      -0.092382      1.00000000
                     1    31       0.247740      1.00000000
                     1    32       0.247764      1.00000000
                     1    33       0.251598      1.00000000
                     1    34       0.251620      1.00000000
                     1    35       0.545322      1.00000000
                     1    36       0.545821      1.00000000
                     1    37       0.549473      1.00000000
                     1    38       0.549972      1.00000000
                     1    39       0.820232      1.00000000
                     1    40       0.820331      1.00000000
                     1    41       0.825054      1.00000000
                     1    42       0.825203      1.00000000
                     2     3      -2.716510      1.00000000
                     2     4      -2.714428      1.00000000
                     2     5      -2.572566      1.00000000
                     2     6      -2.569312      1.00000000
                     2     7      -2.301880      1.00000000
                     2     8      -2.301758      1.00000000
                     2     9      -2.260414      1.00000000
                     2    10      -2.254660      1.00000000
                     2    11      -2.158686      1.00000000
                     2    12      -2.138546      1.00000000
                     2    13      -2.121639      1.00000000
                     2    14      -2.109369      1.00000000
                     2    15      -2.031164      1.00000000
                     2    16      -2.024310      1.00000000
                     2    17      -2.010772      1.00000000
                     2    18      -2.000311      1.00000000
                     2    19      -1.769797      1.00000000
                     2    20      -1.761887      1.00000000
                     2    21      -1.701600      1.00000000
                     2    22      -1.697126      1.00000000
                     2    23      -1.638329      1.00000000
                     2    24      -1.628403      1.00000000
                     2    25      -1.611753      1.00000000
                     2    26      -1.603439      1.00000000
                     2    27      -0.100944      1.00000000
                     2    28      -0.098592      1.00000000
                     2    29      -0.085749      1.00000000
                     2    30      -0.083259      1.00000000
                     2    31       0.193533      1.00000000
                     2    32       0.194998      1.00000000
                     2    33       0.239136      1.00000000
                     2    34       0.240701      1.00000000
                     2    35       0.543101      1.00000000
                     2    36       0.545264      1.00000000
                     2    37       0.554969      1.00000000
                     2    38       0.557066      1.00000000
                     2    39       0.769230      1.00000000
                     2    40       0.770511      1.00000000
                     2    41       0.812121      1.00000000
                     2    42       0.813359      1.00000000
                     3     1      -2.734825      0.93692349
                     3     2      -2.728730      0.98408126
                     3     3      -2.603921      0.01883585
                     3     4      -2.600826      0.06207467
                     3     5      -2.463186      1.00000000
                     3     6      -2.459138      1.00000000
                     3     7      -2.266438      1.00000000
                     3     8      -2.260183      1.00000000
                     3     9      -2.204599      1.00000000
                     3    10      -2.202385      1.00000000
                     3    11      -2.159693      1.00000000
                     3    12      -2.157338      1.00000000
                     3    13      -2.112717      1.00000000
                     3    14      -2.100727      1.00000000
                     3    15      -2.052707      1.00000000
                     3    16      -2.052184      1.00000000
                     3    17      -2.006176      1.00000000
                     3    18      -2.003578      1.00000000
                     3    19      -1.694168      1.00000000
                     3    20      -1.687982      1.00000000
                     3    21      -1.648040      1.00000000
                     3    22      -1.638481      1.00000000
                     3    23      -1.615504      1.00000000
                     3    24      -1.611574      1.00000000
                     3    25      -1.515207      1.00000000
                     3    26      -1.513515      1.00000000
                     3    27      -0.100959      1.00000000
                     3    28      -0.099896      1.00000000
                     3    29      -0.063207      1.00000000
                     3    30      -0.062397      1.00000000
                     3    31       0.086240      1.00000000
                     3    32       0.087276      1.00000000
                     3    33       0.210487      1.00000000
                     3    34       0.212914      1.00000000
                     3    35       0.536653      1.00000000
                     3    36       0.538281      1.00000000
                     3    37       0.572940      1.00000000
                     3    38       0.575355      1.00000000
                     3    39       0.664754      1.00000000
                     3    40       0.666449      1.00000000
                     3    41       0.782325      0.99958367
                     3    42       0.784844      0.99850105
                     4     3      -2.528334      1.00000000
                     4     4      -2.525633      1.00000000
                     4     5      -2.408613      1.00000000
                     4     6      -2.405783      1.00000000
                     4     7      -2.269975      1.00000000
                     4     8      -2.254226      1.00000000
                     4     9      -2.244051      1.00000000
                     4    10      -2.230770      1.00000000
                     4    11      -2.164106      1.00000000
                     4    12      -2.149030      1.00000000
                     4    13      -2.131626      1.00000000
                     4    14      -2.102768      1.00000000
                     4    15      -2.036768      1.00000000
                     4    16      -2.016359      1.00000000
                     4    17      -1.938721      1.00000000
                     4    18      -1.937318      1.00000000
                     4    19      -1.708501      1.00000000
                     4    20      -1.698760      1.00000000
                     4    21      -1.640041      1.00000000
                     4    22      -1.639361      1.00000000
                     4    23      -1.561976      1.00000000
                     4    24      -1.549112      1.00000000
                     4    25      -1.434150      1.00000000
                     4    26      -1.426049      1.00000000
                     4    27      -0.110353      1.00000000
                     4    28      -0.106302      1.00000000
                     4    29      -0.093488      1.00000000
                     4    30      -0.085319      1.00000000
                     4    31       0.071987      1.00000000
                     4    32       0.074626      1.00000000
                     4    33       0.170730      1.00000000
                     4    34       0.173549      1.00000000
                     4    35       0.517745      1.00000000
                     4    36       0.519598      1.00000000
                     4    37       0.552653      1.00000000
                     4    38       0.554477      1.00000000
                     4    39       0.649259      1.00000000
                     4    40       0.650332      1.00000000
                     4    41       0.739764      1.00000000
                     4    42       0.743898      1.00000000
                     5     3      -2.528034      1.00000000
                     5     4      -2.527097      1.00000000
                     5     5      -2.432342      1.00000000
                     5     6      -2.431751      1.00000000
                     5     7      -2.285017      1.00000000
                     5     8      -2.284136      1.00000000
                     5     9      -2.259274      1.00000000
                     5    10      -2.243268      1.00000000
                     5    11      -2.190499      1.00000000
                     5    12      -2.158373      1.00000000
                     5    13      -2.109714      1.00000000
                     5    14      -2.083527      1.00000000
                     5    15      -1.989885      1.00000000
                     5    16      -1.979050      1.00000000
                     5    17      -1.870732      1.00000000
                     5    18      -1.868601      1.00000000
                     5    19      -1.746460      1.00000000
                     5    20      -1.740093      1.00000000
                     5    21      -1.677099      1.00000000
                     5    22      -1.675162      1.00000000
                     5    23      -1.522878      1.00000000
                     5    24      -1.508605      1.00000000
                     5    25      -1.391671      1.00000000
                     5    26      -1.380905      1.00000000
                     5    27      -0.153928      1.00000000
                     5    28      -0.149708      1.00000000
                     5    29      -0.091308      1.00000000
                     5    30      -0.088640      1.00000000
                     5    31       0.115523      1.00000000
                     5    32       0.119806      1.00000000
                     5    33       0.138112      1.00000000
                     5    34       0.140075      1.00000000
                     5    35       0.479055      1.00000000
                     5    36       0.482525      1.00000000
                     5    37       0.551953      1.00000000
                     5    38       0.552967      1.00000000
                     5    39       0.677177      1.00000000
                     5    40       0.677673      1.00000000
                     5    41       0.712594      1.00000000
                     5    42       0.715945      1.00000000
                     6     3      -2.527923      1.00000000
                     6     4      -2.527408      1.00000000
                     6     5      -2.432352      1.00000000
                     6     6      -2.431447      1.00000000
                     6     7      -2.285684      1.00000000
                     6     8      -2.282864      1.00000000
                     6     9      -2.257966      1.00000000
                     6    10      -2.245123      1.00000000
                     6    11      -2.192800      1.00000000
                     6    12      -2.156960      1.00000000
                     6    13      -2.105976      1.00000000
                     6    14      -2.086809      1.00000000
                     6    15      -1.989035      1.00000000
                     6    16      -1.980832      1.00000000
                     6    17      -1.872467      1.00000000
                     6    18      -1.864498      1.00000000
                     6    19      -1.745052      1.00000000
                     6    20      -1.743005      1.00000000
                     6    21      -1.678900      1.00000000
                     6    22      -1.673372      1.00000000
                     6    23      -1.522832      1.00000000
                     6    24      -1.507852      1.00000000
                     6    25      -1.392007      1.00000000
                     6    26      -1.381067      1.00000000
                     6    27      -0.154489      1.00000000
                     6    28      -0.148850      1.00000000
                     6    29      -0.091808      1.00000000
                     6    30      -0.088346      1.00000000
                     6    31       0.117111      1.00000000
                     6    32       0.118755      1.00000000
                     6    33       0.136232      1.00000000
                     6    34       0.140965      1.00000000
                     6    35       0.479676      1.00000000
                     6    36       0.482089      1.00000000
                     6    37       0.551977      1.00000000
                     6    38       0.552878      1.00000000
                     6    39       0.677553      1.00000000
                     6    40       0.678527      1.00000000
                     6    41       0.713309      1.00000000
                     6    42       0.714228      1.00000000
                     7     3      -2.527803      1.00000000
                     7     4      -2.526381      1.00000000
                     7     5      -2.408454      1.00000000
                     7     6      -2.404765      1.00000000
                     7     7      -2.269623      1.00000000
                     7     8      -2.257178      1.00000000
                     7     9      -2.243542      1.00000000
                     7    10      -2.231144      1.00000000
                     7    11      -2.168257      1.00000000
                     7    12      -2.142233      1.00000000
                     7    13      -2.122717      1.00000000
                     7    14      -2.114438      1.00000000
                     7    15      -2.037731      1.00000000
                     7    16      -2.015566      1.00000000
                     7    17      -1.940578      1.00000000
                     7    18      -1.933041      1.00000000
                     7    19      -1.704998      1.00000000
                     7    20      -1.703338      1.00000000
                     7    21      -1.642677      1.00000000
                     7    22      -1.637398      1.00000000
                     7    23      -1.560986      1.00000000
                     7    24      -1.547954      1.00000000
                     7    25      -1.435457      1.00000000
                     7    26      -1.425931      1.00000000
                     7    27      -0.107863      1.00000000
                     7    28      -0.107162      1.00000000
                     7    29      -0.094441      1.00000000
                     7    30      -0.085548      1.00000000
                     7    31       0.071910      1.00000000
                     7    32       0.074166      1.00000000
                     7    33       0.170217      1.00000000
                     7    34       0.173393      1.00000000
                     7    35       0.518184      1.00000000
                     7    36       0.519533      1.00000000
                     7    37       0.553268      1.00000000
                     7    38       0.553968      1.00000000
                     7    39       0.648859      1.00000000
                     7    40       0.651561      1.00000000
                     7    41       0.741250      1.00000000
                     7    42       0.741846      1.00000000
                     8     1      -2.732652      0.94078542
                     8     2      -2.729744      0.90585668
                     8     3      -2.602662      0.09185019
                     8     4      -2.600999      0.06231130
                     8     5      -2.463777      1.00000000
                     8     6      -2.459662      1.00000000
                     8     7      -2.264693      1.00000000
                     8     8      -2.264006      1.00000000
                     8     9      -2.201260      1.00000000
                     8    10      -2.199846      1.00000000
                     8    11      -2.163910      1.00000000
                     8    12      -2.157116      1.00000000
                     8    13      -2.111742      1.00000000
                     8    14      -2.102693      1.00000000
                     8    15      -2.062888      1.00000000
                     8    16      -2.039399      1.00000000
                     8    17      -2.006165      1.00000000
                     8    18      -2.004516      1.00000000
                     8    19      -1.692915      1.00000000
                     8    20      -1.689206      1.00000000
                     8    21      -1.648347      1.00000000
                     8    22      -1.639005      1.00000000
                     8    23      -1.613899      1.00000000
                     8    24      -1.611769      1.00000000
                     8    25      -1.517605      1.00000000
                     8    26      -1.512074      1.00000000
                     8    27      -0.101550      1.00000000
                     8    28      -0.098601      1.00000000
                     8    29      -0.063152      1.00000000
                     8    30      -0.062564      1.00000000
                     8    31       0.085705      1.00000000
                     8    32       0.087061      1.00000000
                     8    33       0.210649      1.00000000
                     8    34       0.212316      1.00000000
                     8    35       0.535782      1.00000000
                     8    36       0.539260      1.00000000
                     8    37       0.573211      1.00000000
                     8    38       0.575571      1.00000000
                     8    39       0.664406      1.00000000
                     8    40       0.667007      1.00000000
                     8    41       0.783260      0.99964505
                     8    42       0.783712      0.99955136
                     9     3      -2.715879      1.00000000
                     9     4      -2.710393      1.00000000
                     9     5      -2.572822      1.00000000
                     9     6      -2.571172      1.00000000
                     9     7      -2.301885      1.00000000
                     9     8      -2.300725      1.00000000
                     9     9      -2.259105      1.00000000
                     9    10      -2.256101      1.00000000
                     9    11      -2.155693      1.00000000
                     9    12      -2.141419      1.00000000
                     9    13      -2.123196      1.00000000
                     9    14      -2.107618      1.00000000
                     9    15      -2.032640      1.00000000
                     9    16      -2.025007      1.00000000
                     9    17      -2.009051      1.00000000
                     9    18      -2.000223      1.00000000
                     9    19      -1.768442      1.00000000
                     9    20      -1.762060      1.00000000
                     9    21      -1.700301      1.00000000
                     9    22      -1.699911      1.00000000
                     9    23      -1.637302      1.00000000
                     9    24      -1.630151      1.00000000
                     9    25      -1.609011      1.00000000
                     9    26      -1.605248      1.00000000
                     9    27      -0.101028      1.00000000
                     9    28      -0.097857      1.00000000
                     9    29      -0.086255      1.00000000
                     9    30      -0.083237      1.00000000
                     9    31       0.193483      1.00000000
                     9    32       0.194873      1.00000000
                     9    33       0.239253      1.00000000
                     9    34       0.240335      1.00000000
                     9    35       0.542539      1.00000000
                     9    36       0.545884      1.00000000
                     9    37       0.554526      1.00000000
                     9    38       0.557688      1.00000000
                     9    39       0.769439      1.00000000
                     9    40       0.770481      1.00000000
                     9    41       0.812367      1.00000000
                     9    42       0.812977      1.00000000
                    10     3      -2.719933      1.00000000
                    10     4      -2.717883      1.00000000
                    10     5      -2.572609      1.00000000
                    10     6      -2.569698      1.00000000
                    10     7      -2.301614      1.00000000
                    10     8      -2.301080      1.00000000
                    10     9      -2.257602      1.00000000
                    10    10      -2.257238      1.00000000
                    10    11      -2.149353      1.00000000
                    10    12      -2.148955      1.00000000
                    10    13      -2.121589      1.00000000
                    10    14      -2.121260      1.00000000
                    10    15      -2.029524      1.00000000
                    10    16      -2.024270      1.00000000
                    10    17      -2.001153      1.00000000
                    10    18      -1.999677      1.00000000
                    10    19      -1.772069      1.00000000
                    10    20      -1.767428      1.00000000
                    10    21      -1.696922      1.00000000
                    10    22      -1.694856      1.00000000
                    10    23      -1.627017      1.00000000
                    10    24      -1.626507      1.00000000
                    10    25      -1.614769      1.00000000
                    10    26      -1.614681      1.00000000
                    10    27      -0.099209      1.00000000
                    10    28      -0.098689      1.00000000
                    10    29      -0.084488      1.00000000
                    10    30      -0.084037      1.00000000
                    10    31       0.192461      1.00000000
                    10    32       0.192743      1.00000000
                    10    33       0.238416      1.00000000
                    10    34       0.238810      1.00000000
                    10    35       0.547921      1.00000000
                    10    36       0.548888      1.00000000
                    10    37       0.554874      1.00000000
                    10    38       0.555745      1.00000000
                    10    39       0.768138      1.00000000
                    10    40       0.768536      1.00000000
                    10    41       0.812471      1.00000000
                    10    42       0.812919      1.00000000
                    11     1      -2.683305      0.99753645
                    11     2      -2.681301      0.83827695
                    11     3      -2.633809      0.10182905
                    11     4      -2.632805      0.06419151
                    11     5      -2.488737      1.00000000
                    11     6      -2.487495      1.00000000
                    11     7      -2.261562      1.00000000
                    11     8      -2.260497      1.00000000
                    11     9      -2.218073      1.00000000
                    11    10      -2.211626      1.00000000
                    11    11      -2.153695      1.00000000
                    11    12      -2.139703      1.00000000
                    11    13      -2.099596      1.00000000
                    11    14      -2.092619      1.00000000
                    11    15      -2.059707      1.00000000
                    11    16      -2.059520      1.00000000
                    11    17      -2.023936      1.00000000
                    11    18      -2.021740      1.00000000
                    11    19      -1.703825      1.00000000
                    11    20      -1.692746      1.00000000
                    11    21      -1.659572      1.00000000
                    11    22      -1.652598      1.00000000
                    11    23      -1.609418      1.00000000
                    11    24      -1.601921      1.00000000
                    11    25      -1.560899      1.00000000
                    11    26      -1.556443      1.00000000
                    11    27      -0.102439      1.00000000
                    11    28      -0.099379      1.00000000
                    11    29      -0.064026      1.00000000
                    11    30      -0.061198      1.00000000
                    11    31       0.102272      1.00000000
                    11    32       0.103574      1.00000000
                    11    33       0.224125      1.00000000
                    11    34       0.225270      1.00000000
                    11    35       0.541681      1.00000000
                    11    36       0.544869      1.00000000
                    11    37       0.571637      1.00000000
                    11    38       0.574763      1.00000000
                    11    39       0.684344      0.99957479
                    11    40       0.685690      0.99870535
                    11    41       0.796496      0.99998488
                    11    42       0.797379      0.99990102
                    12     1      -2.661742      0.98530048
                    12     2      -2.659336      0.96494558
                    12     3      -2.554918      0.03251255
                    12     4      -2.553674      0.01740934
                    12     5      -2.424261      1.00000000
                    12     6      -2.422781      1.00000000
                    12     7      -2.267467      1.00000000
                    12     8      -2.261127      1.00000000
                    12     9      -2.192799      1.00000000
                    12    10      -2.179464      1.00000000
                    12    11      -2.147484      1.00000000
                    12    12      -2.128188      1.00000000
                    12    13      -2.100320      1.00000000
                    12    14      -2.092069      1.00000000
                    12    15      -2.068870      1.00000000
                    12    16      -2.046128      1.00000000
                    12    17      -1.986167      1.00000000
                    12    18      -1.985421      1.00000000
                    12    19      -1.659606      1.00000000
                    12    20      -1.652049      1.00000000
                    12    21      -1.622302      1.00000000
                    12    22      -1.621759      1.00000000
                    12    23      -1.599284      1.00000000
                    12    24      -1.590964      1.00000000
                    12    25      -1.482329      1.00000000
                    12    26      -1.478354      1.00000000
                    12    27      -0.113885      1.00000000
                    12    28      -0.111840      1.00000000
                    12    29      -0.049677      1.00000000
                    12    30      -0.048289      1.00000000
                    12    31       0.028277      1.00000000
                    12    32       0.029865      1.00000000
                    12    33       0.206367      1.00000000
                    12    34       0.208439      1.00000000
                    12    35       0.528352      1.00000000
                    12    36       0.530327      1.00000000
                    12    37       0.573918      1.00000000
                    12    38       0.577861      1.00000000
                    12    39       0.622358      1.00000000
                    12    40       0.623245      1.00000000
                    12    41       0.771790      0.99984024
                    12    42       0.774093      0.99999182
                    13     1      -2.706654      0.82696580
                    13     2      -2.703211      0.92861920
                    13     3      -2.553314      0.09582393
                    13     4      -2.552655      0.14871200
                    13     5      -2.446911      1.00000000
                    13     6      -2.446263      1.00000000
                    13     7      -2.266502      1.00000000
                    13     8      -2.249331      1.00000000
                    13     9      -2.218583      1.00000000
                    13    10      -2.200814      1.00000000
                    13    11      -2.123694      1.00000000
                    13    12      -2.118420      1.00000000
                    13    13      -2.100871      1.00000000
                    13    14      -2.077161      1.00000000
                    13    15      -2.020167      1.00000000
                    13    16      -2.001434      1.00000000
                    13    17      -1.916375      1.00000000
                    13    18      -1.915620      1.00000000
                    13    19      -1.693650      1.00000000
                    13    20      -1.686428      1.00000000
                    13    21      -1.643875      1.00000000
                    13    22      -1.642999      1.00000000
                    13    23      -1.558954      1.00000000
                    13    24      -1.545747      1.00000000
                    13    25      -1.428869      1.00000000
                    13    26      -1.420351      1.00000000
                    13    27      -0.151451      1.00000000
                    13    28      -0.148294      1.00000000
                    13    29      -0.071337      1.00000000
                    13    30      -0.068879      1.00000000
                    13    31       0.053263      1.00000000
                    13    32       0.056547      1.00000000
                    13    33       0.198609      1.00000000
                    13    34       0.200861      1.00000000
                    13    35       0.489293      1.00000000
                    13    36       0.491214      1.00000000
                    13    37       0.556940      1.00000000
                    13    38       0.558429      1.00000000
                    13    39       0.645387      1.00000000
                    13    40       0.645973      1.00000000
                    13    41       0.755571      0.99995080
                    13    42       0.758218      0.99992826
                    14     1      -2.736561      0.72593409
                    14     2      -2.731838      0.83553904
                    14     3      -2.580385      0.26640784
                    14     4      -2.579427      0.17216637
                    14     5      -2.483903      1.00000000
                    14     6      -2.483365      1.00000000
                    14     7      -2.246584      1.00000000
                    14     8      -2.243865      1.00000000
                    14     9      -2.214205      1.00000000
                    14    10      -2.206728      1.00000000
                    14    11      -2.155235      1.00000000
                    14    12      -2.128585      1.00000000
                    14    13      -2.067478      1.00000000
                    14    14      -2.051271      1.00000000
                    14    15      -1.983955      1.00000000
[...]
                    74    30      -0.083158      1.00000000
                    74    31       0.193531      1.00000000
                    74    32       0.194993      1.00000000
                    74    33       0.239030      1.00000000
                    74    34       0.240544      1.00000000
                    74    35       0.543312      1.00000000
                    74    36       0.545352      1.00000000
                    74    37       0.554980      1.00000000
                    74    38       0.557068      1.00000000
                    74    39       0.769131      1.00000000
                    74    40       0.770379      1.00000000
                    74    41       0.812215      1.00000000
                    74    42       0.813361      1.00000000
                    75     1      -2.688243      0.91915959
                    75     2      -2.687909      0.91910681
                    75     3      -2.633691      0.08084769
                    75     4      -2.632654      0.08120303
                    75     5      -2.488718      1.00000000
                    75     6      -2.487601      1.00000000
                    75     7      -2.255614      1.00000000
                    75     8      -2.255488      1.00000000
                    75     9      -2.229505      1.00000000
                    75    10      -2.229141      1.00000000
                    75    11      -2.122862      1.00000000
                    75    12      -2.122159      1.00000000
                    75    13      -2.104364      1.00000000
                    75    14      -2.103925      1.00000000
                    75    15      -2.070069      1.00000000
                    75    16      -2.069893      1.00000000
                    75    17      -2.014605      1.00000000
                    75    18      -2.014445      1.00000000
                    75    19      -1.710507      1.00000000
                    75    20      -1.710060      1.00000000
                    75    21      -1.658836      1.00000000
                    75    22      -1.658398      1.00000000
                    75    23      -1.583505      1.00000000
                    75    24      -1.582759      1.00000000
                    75    25      -1.570379      1.00000000
                    75    26      -1.569595      1.00000000
                    75    27      -0.100949      1.00000000
                    75    28      -0.100325      1.00000000
                    75    29      -0.067450      1.00000000
                    75    30      -0.066905      1.00000000
                    75    31       0.107779      1.00000000
                    75    32       0.108113      1.00000000
                    75    33       0.228170      1.00000000
                    75    34       0.228396      1.00000000
                    75    35       0.537545      1.00000000
                    75    36       0.538210      1.00000000
                    75    37       0.568119      1.00000000
                    75    38       0.568729      1.00000000
                    75    39       0.688874      0.99985122
                    75    40       0.689456      0.99983706
                    75    41       0.798397      0.99999752
                    75    42       0.798776      0.99999709
                    76     1      -2.669398      0.97516883
                    76     2      -2.666644      0.97386517
                    76     3      -2.554765      0.02619435
                    76     4      -2.553557      0.02509448
                    76     5      -2.424371      1.00000000
                    76     6      -2.423114      1.00000000
                    76     7      -2.252807      1.00000000
                    76     8      -2.248452      1.00000000
                    76     9      -2.219414      1.00000000
                    76    10      -2.217421      1.00000000
                    76    11      -2.130816      1.00000000
                    76    12      -2.126732      1.00000000
                    76    13      -2.081848      1.00000000
                    76    14      -2.077729      1.00000000
                    76    15      -2.066988      1.00000000
                    76    16      -2.058183      1.00000000
                    76    17      -1.980691      1.00000000
                    76    18      -1.979276      1.00000000
                    76    19      -1.688638      1.00000000
                    76    20      -1.678712      1.00000000
                    76    21      -1.628911      1.00000000
                    76    22      -1.620557      1.00000000
                    76    23      -1.566331      1.00000000
                    76    24      -1.560761      1.00000000
                    76    25      -1.490659      1.00000000
                    76    26      -1.484630      1.00000000
                    76    27      -0.117419      1.00000000
                    76    28      -0.116273      1.00000000
                    76    29      -0.051322      1.00000000
                    76    30      -0.047950      1.00000000
                    76    31       0.032248      1.00000000
                    76    32       0.034361      1.00000000
                    76    33       0.211957      1.00000000
                    76    34       0.213255      1.00000000
                    76    35       0.516686      1.00000000
                    76    36       0.517381      1.00000000
                    76    37       0.580256      1.00000000
                    76    38       0.582183      1.00000000
                    76    39       0.621036      1.00000000
                    76    40       0.622181      1.00000000
                    76    41       0.775456      0.99989536
                    76    42       0.776995      0.99978183
                    77     1      -2.710834      0.92027553
                    77     2      -2.709779      0.86650506
                    77     3      -2.553009      0.11135407
                    77     4      -2.552401      0.10193367
                    77     5      -2.447505      1.00000000
                    77     6      -2.446585      1.00000000
                    77     7      -2.252313      1.00000000
                    77     8      -2.248658      1.00000000
                    77     9      -2.230055      1.00000000
                    77    10      -2.205032      1.00000000
                    77    11      -2.155174      1.00000000
                    77    12      -2.131298      1.00000000
                    77    13      -2.070565      1.00000000
                    77    14      -2.052827      1.00000000
                    77    15      -2.020341      1.00000000
                    77    16      -2.003682      1.00000000
                    77    17      -1.912479      1.00000000
                    77    18      -1.910710      1.00000000
                    77    19      -1.718695      1.00000000
                    77    20      -1.708825      1.00000000
                    77    21      -1.635335      1.00000000
                    77    22      -1.630724      1.00000000
                    77    23      -1.549878      1.00000000
                    77    24      -1.537573      1.00000000
                    77    25      -1.432106      1.00000000
                    77    26      -1.422524      1.00000000
                    77    27      -0.155223      1.00000000
                    77    28      -0.153840      1.00000000
                    77    29      -0.066688      1.00000000
                    77    30      -0.062106      1.00000000
                    77    31       0.050412      1.00000000
                    77    32       0.054866      1.00000000
                    77    33       0.203356      1.00000000
                    77    34       0.204917      1.00000000
                    77    35       0.480523      1.00000000
                    77    36       0.482498      1.00000000
                    77    37       0.564767      1.00000000
                    77    38       0.567018      1.00000000
                    77    39       0.638558      1.00000000
                    77    40       0.640530      1.00000000
                    77    41       0.759423      0.99997446
                    77    42       0.761203      0.99995721
                    78     1      -2.735921      0.73730194
                    78     2      -2.732504      0.83553172
                    78     3      -2.580601      0.25620007
                    78     4      -2.579615      0.17102159
                    78     5      -2.483651      1.00000000
                    78     6      -2.483065      1.00000000
                    78     7      -2.244888      1.00000000
                    78     8      -2.243081      1.00000000
                    78     9      -2.219355      1.00000000
                    78    10      -2.203387      1.00000000
                    78    11      -2.158947      1.00000000
                    78    12      -2.126892      1.00000000
                    78    13      -2.067303      1.00000000
                    78    14      -2.046999      1.00000000
                    78    15      -1.987878      1.00000000
                    78    16      -1.983203      1.00000000
                    78    17      -1.877522      1.00000000
                    78    18      -1.870548      1.00000000
                    78    19      -1.732773      1.00000000
                    78    20      -1.727844      1.00000000
                    78    21      -1.665466      1.00000000
                    78    22      -1.660654      1.00000000
                    78    23      -1.539298      1.00000000
                    78    24      -1.525178      1.00000000
                    78    25      -1.411450      1.00000000
                    78    26      -1.401027      1.00000000
                    78    27      -0.174252      1.00000000
                    78    28      -0.170330      1.00000000
                    78    29      -0.071255      1.00000000
                    78    30      -0.067213      1.00000000
                    78    31       0.063097      1.00000000
                    78    32       0.067771      1.00000000
                    78    33       0.204686      1.00000000
                    78    34       0.206433      1.00000000
                    78    35       0.467508      1.00000000
                    78    36       0.469601      1.00000000
                    78    37       0.562352      1.00000000
                    78    38       0.564192      1.00000000
                    78    39       0.645756      1.00000000
                    78    40       0.647776      1.00000000
                    78    41       0.759881      0.99996025
                    78    42       0.760647      0.99998442
                    79     1      -2.707002      0.86998473
                    79     2      -2.702676      0.90592224
                    79     3      -2.553778      0.12688076
                    79     4      -2.552773      0.09728963
                    79     5      -2.446420      1.00000000
                    79     6      -2.445618      1.00000000
                    79     7      -2.262319      1.00000000
                    79     8      -2.255046      1.00000000
                    79     9      -2.218107      1.00000000
                    79    10      -2.200575      1.00000000
                    79    11      -2.132276      1.00000000
                    79    12      -2.112303      1.00000000
                    79    13      -2.095682      1.00000000
                    79    14      -2.076675      1.00000000
                    79    15      -2.018862      1.00000000
                    79    16      -2.008874      1.00000000
                    79    17      -1.916912      1.00000000
                    79    18      -1.910967      1.00000000
                    79    19      -1.693495      1.00000000
                    79    20      -1.688090      1.00000000
                    79    21      -1.646032      1.00000000
                    79    22      -1.641168      1.00000000
                    79    23      -1.558849      1.00000000
                    79    24      -1.543931      1.00000000
                    79    25      -1.429823      1.00000000
                    79    26      -1.420358      1.00000000
                    79    27      -0.151765      1.00000000
                    79    28      -0.147592      1.00000000
                    79    29      -0.072656      1.00000000
                    79    30      -0.067721      1.00000000
                    79    31       0.052671      1.00000000
                    79    32       0.056802      1.00000000
                    79    33       0.198449      1.00000000
                    79    34       0.200675      1.00000000
                    79    35       0.489780      1.00000000
                    79    36       0.490968      1.00000000
                    79    37       0.557287      1.00000000
                    79    38       0.557995      1.00000000
                    79    39       0.645229      1.00000000
                    79    40       0.646732      1.00000000
                    79    41       0.756402      0.99995983
                    79    42       0.757072      0.99996280
                    80     1      -2.660699      0.97771908
                    80     2      -2.660342      0.97900042
                    80     3      -2.554696      0.02141818
                    80     4      -2.553774      0.02195613
                    80     5      -2.423994      1.00000000
                    80     6      -2.422304      1.00000000
                    80     7      -2.265839      1.00000000
                    80     8      -2.264617      1.00000000
                    80     9      -2.191049      1.00000000
                    80    10      -2.180727      1.00000000
                    80    11      -2.139874      1.00000000
                    80    12      -2.137986      1.00000000
                    80    13      -2.097849      1.00000000
                    80    14      -2.093470      1.00000000
                    80    15      -2.064550      1.00000000
                    80    16      -2.050405      1.00000000
                    80    17      -1.985776      1.00000000
                    80    18      -1.983907      1.00000000
                    80    19      -1.657814      1.00000000
                    80    20      -1.654866      1.00000000
                    80    21      -1.623208      1.00000000
                    80    22      -1.620089      1.00000000
                    80    23      -1.601942      1.00000000
                    80    24      -1.587172      1.00000000
                    80    25      -1.484167      1.00000000
                    80    26      -1.477664      1.00000000
                    80    27      -0.113903      1.00000000
                    80    28      -0.111141      1.00000000
                    80    29      -0.050874      1.00000000
                    80    30      -0.047061      1.00000000
                    80    31       0.027312      1.00000000
                    80    32       0.029907      1.00000000
                    80    33       0.206300      1.00000000
                    80    34       0.208141      1.00000000
                    80    35       0.528376      1.00000000
                    80    36       0.530453      1.00000000
                    80    37       0.575660      1.00000000
                    80    38       0.576534      1.00000000
                    80    39       0.620838      1.00000000
                    80    40       0.625006      1.00000000
                    80    41       0.772441      0.99995588
                    80    42       0.773205      0.99995031
                    81     1      -2.683899      0.73390412
                    81     2      -2.681059      0.95714147
                    81     3      -2.633376      0.08404441
                    81     4      -2.632180      0.22572938
                    81     5      -2.489082      1.00000000
                    81     6      -2.487944      1.00000000
                    81     7      -2.261470      1.00000000
                    81     8      -2.260959      1.00000000
                    81     9      -2.217239      1.00000000
                    81    10      -2.211554      1.00000000
                    81    11      -2.153218      1.00000000
                    81    12      -2.141982      1.00000000
                    81    13      -2.103082      1.00000000
                    81    14      -2.085482      1.00000000
                    81    15      -2.067473      1.00000000
                    81    16      -2.052299      1.00000000
                    81    17      -2.025667      1.00000000
                    81    18      -2.021739      1.00000000
                    81    19      -1.699573      1.00000000
                    81    20      -1.696489      1.00000000
                    81    21      -1.657253      1.00000000
                    81    22      -1.655113      1.00000000
                    81    23      -1.607378      1.00000000
                    81    24      -1.604435      1.00000000
                    81    25      -1.559403      1.00000000
                    81    26      -1.557779      1.00000000
                    81    27      -0.102108      1.00000000
                    81    28      -0.099357      1.00000000
                    81    29      -0.063890      1.00000000
                    81    30      -0.061418      1.00000000
                    81    31       0.102068      1.00000000
                    81    32       0.103406      1.00000000
                    81    33       0.223969      1.00000000
                    81    34       0.225234      1.00000000
                    81    35       0.541895      1.00000000
                    81    36       0.544607      1.00000000
                    81    37       0.572104      1.00000000
                    81    38       0.574624      1.00000000
                    81    39       0.684388      0.99970055
                    81    40       0.685792      0.99968588
                    81    41       0.796455      0.99983588
                    81    42       0.797304      0.99995832
 ------------------------------------------------------------------------------

 Time for wannierise            0.045 (sec)

 done

 *---------------------------------------------------------------------------*
 |                               PLOTTING                                    |
 *---------------------------------------------------------------------------*
 
 
 Calculating interpolated band-structure
 
 Time to calculate interpolated band structure       2.885 (sec)
 
 Time for plotting              3.782 (sec)
 Total Execution Time           5.220 (sec)

 *===========================================================================*
 |                             TIMING INFORMATION                            |
 *===========================================================================*
 |    Tag                                                Ncalls      Time (s)|
 |---------------------------------------------------------------------------|
 |kmesh: get                                        :         1         0.068|
 |overlap: allocate                                 :         1         0.003|
 |overlap: read                                     :         1         0.991|
 |dis: main                                         :         1         0.277|
 |wann: main                                        :         1         0.045|
 |plot: main                                        :         1         3.782|
 *---------------------------------------------------------------------------*
 
 All done: wannier90 exiting
