    3    3    1    1
  0.3399209E+02  0.4458000E-09  0.4458000E-09  0.5925000E-09  0.5000000E-15
  1.000000000000000E-004
  CAR 
 unknown system                          
     18    540     33
 
  0.0000000E+00  0.0000000E+00  0.0000000E+00  0.1851852E-02
    1       -7.825233   1.000000
    2       -7.825233   1.000000
    3       -4.420999   1.000000
    4       -4.420999   1.000000
    5       -4.419106   1.000000
    6       -4.419106   1.000000
    7        2.648419   1.000000
    8        2.648419   1.000000
    9        2.832747   1.000000
   10        2.832747   1.000000
   11        3.235229   1.000000
   12        3.235229   1.000000
   13        4.282769   1.000000
   14        4.282769   1.000000
   15        4.297390   1.000000
   16        4.297390   1.000000
   17        5.296791   1.000000
   18        5.296791   1.000000
   19        6.733415   0.000000
   20        6.733415   0.000000
   21        7.228559   0.000000
   22        7.228559   0.000000
   23        7.817887   0.000000
   24        7.817887   0.000000
   25       10.815984   0.000000
   26       10.815984   0.000000
   27       10.817386   0.000000
   28       10.817386   0.000000
   29       11.729703   0.000000
   30       11.729703   0.000000
   31       12.303878   0.000000
   32       12.304062   0.000000
   33       12.363335   0.000000
 
  0.8474576E-02  0.0000000E+00  0.0000000E+00  0.1851852E-02
    1       -7.824795   1.000000
    2       -7.824777   1.000000
    3       -4.420995   1.000000
    4       -4.420982   1.000000
    5       -4.419395   1.000000
    6       -4.418753   1.000000
    7        2.625880   1.000000
    8        2.663935   1.000000
    9        2.830221   1.000000
   10        2.830691   1.000000
   11        3.212940   1.000000
   12        3.252775   1.000000
   13        4.277806   1.000000
   14        4.282446   1.000000
   15        4.303993   1.000000
   16        4.308034   1.000000
   17        5.294426   1.000000
   18        5.299850   1.000000
   19        6.732411   0.000000
   20        6.733898   0.000000
   21        7.227223   0.000000
   22        7.227244   0.000000
   23        7.812978   0.000000
   24        7.821017   0.000000
   25       10.814105   0.000000
   26       10.815006   0.000000
   27       10.816890   0.000000
   28       10.819722   0.000000
   29       11.731995   0.000000
   30       11.732171   0.000000
   31       12.299147   0.000000
   32       12.308438   0.000000
   33       12.362746   0.000000
 
  0.1694915E-01  0.0000000E+00  0.0000000E+00  0.1851852E-02
    1       -7.823445   1.000000
    2       -7.823410   1.000000
    3       -4.421155   1.000000
    4       -4.420997   1.000000
    5       -4.419433   1.000000
    6       -4.418279   1.000000
    7        2.597408   1.000000
    8        2.670913   1.000000
    9        2.822054   1.000000
   10        2.825744   1.000000
   11        3.186808   1.000000
   12        3.265053   1.000000
   13        4.270074   1.000000
   14        4.289059   1.000000
   15        4.319454   1.000000
   16        4.329005   1.000000
   17        5.292828   1.000000
   18        5.303490   1.000000
   19        6.730977   0.000000
   20        6.733800   0.000000
   21        7.223208   0.000000
   22        7.223382   0.000000
   23        7.806347   0.000000
   24        7.822378   0.000000
   25       10.810933   0.000000
   26       10.813250   0.000000
   27       10.816262   0.000000
   28       10.822113   0.000000
   29       11.738930   0.000000
   30       11.739378   0.000000
   31       12.294079   0.000000
   32       12.312337   0.000000
   33       12.360584   0.000000
 
  0.2542373E-01  0.0000000E+00  0.0000000E+00  0.1851852E-02
    1       -7.821184   1.000000
    2       -7.821130   1.000000
    3       -4.421731   1.000000
    4       -4.421189   1.000000
    5       -4.418967   1.000000
    6       -4.417545   1.000000
    7        2.563758   1.000000
    8        2.667590   1.000000
    9        2.807918   1.000000
   10        2.819848   1.000000
   11        3.157873   1.000000
   12        3.272009   1.000000
   13        4.264168   1.000000
   14        4.304963   1.000000
   15        4.336091   1.000000
   16        4.359361   1.000000
   17        5.292024   1.000000
   18        5.307554   1.000000
   19        6.729227   0.000000
   20        6.733108   0.000000
   21        7.216567   0.000000
   22        7.217160   0.000000
   23        7.798129   0.000000
   24        7.822055   0.000000
   25       10.806985   0.000000
   26       10.811146   0.000000
   27       10.814641   0.000000
   28       10.824165   0.000000
   29       11.750241   0.000000
   30       11.751190   0.000000
   31       12.288960   0.000000
   32       12.315057   0.000000
   33       12.357908   0.000000
 
  0.3389831E-01  0.0000000E+00  0.0000000E+00  0.1851852E-02
    1       -7.818012   1.000000
    2       -7.817940   1.000000
    3       -4.422669   1.000000
    4       -4.421653   1.000000
    5       -4.418060   1.000000
    6       -4.416465   1.000000
    7        2.525498   1.000000
    8        2.652737   1.000000
    9        2.788188   1.000000
   10        2.814334   1.000000
   11        3.127093   1.000000
   12        3.274002   1.000000
   13        4.260793   1.000000
   14        4.329570   1.000000
   15        4.353835   1.000000
   16        4.396522   1.000000
   17        5.291981   1.000000
   18        5.311850   1.000000
   19        6.727281   0.000000
   20        6.731872   0.000000
   21        7.207426   0.000000
   22        7.208843   0.000000
   23        7.788524   0.000000
   24        7.820189   0.000000
   25       10.802135   0.000000
   26       10.808735   0.000000
   27       10.811981   0.000000
   28       10.825517   0.000000
   29       11.765522   0.000000
   30       11.767314   0.000000
   31       12.283724   0.000000
   32       12.316555   0.000000
   33       12.352503   0.000000
 
  0.4237288E-01  0.0000000E+00  0.0000000E+00  0.1851852E-02
    1       -7.813932   1.000000
    2       -7.813842   1.000000
    3       -4.423892   1.000000
    4       -4.422411   1.000000
    5       -4.416798   1.000000
    6       -4.415030   1.000000
    7        2.483114   1.000000
    8        2.626470   1.000000
    9        2.763755   1.000000
   10        2.809183   1.000000
   11        3.095234   1.000000
   12        3.271622   1.000000
   13        4.260144   1.000000
   14        4.361567   1.000000
   15        4.372499   1.000000
   16        4.438707   1.000000
   17        5.292602   1.000000
   18        5.316150   1.000000
   19        6.725238   0.000000
   20        6.730247   0.000000
   21        7.195988   0.000000
   22        7.198767   0.000000
   23        7.777777   0.000000
   24        7.816962   0.000000
   25       10.796275   0.000000
   26       10.805944   0.000000
   27       10.808261   0.000000
   28       10.825734   0.000000
   29       11.784229   0.000000
   30       11.787263   0.000000
   31       12.278088   0.000000
   32       12.313359   0.000000
   33       12.340717   0.000000
 
  0.5084746E-01  0.0000000E+00  0.0000000E+00  0.1851852E-02
    1       -7.808953   1.000000
    2       -7.808845   1.000000
    3       -4.425396   1.000000
    4       -4.423475   1.000000
    5       -4.415233   1.000000
    6       -4.413278   1.000000
    7        2.436869   1.000000
    8        2.589937   1.000000
    9        2.735652   1.000000
   10        2.803230   1.000000
   11        3.062868   1.000000
   12        3.265481   1.000000
   13        4.262230   1.000000
   14        4.391637   1.000000
   15        4.399492   1.000000
   16        4.484372   1.000000
   17        5.293661   1.000000
   18        5.320111   1.000000
   19        6.723111   0.000000
   20        6.728555   0.000000
   21        7.182504   0.000000
   22        7.187330   0.000000
   23        7.766170   0.000000
   24        7.812572   0.000000
   25       10.788874   0.000000
   26       10.802567   0.000000
   27       10.803148   0.000000
   28       10.824111   0.000000
   29       11.805589   0.000000
   30       11.810279   0.000000
   31       12.271796   0.000000
   32       12.307053   0.000000
   33       12.330847   0.000000
 
  0.5932203E-01  0.0000000E+00  0.0000000E+00  0.1851852E-02
    1       -7.803095   1.000000
    2       -7.802972   1.000000
    3       -4.427186   1.000000
    4       -4.424849   1.000000
    5       -4.413378   1.000000
    6       -4.411223   1.000000
    7        2.387547   1.000000
    8        2.545226   1.000000
    9        2.704892   1.000000
   10        2.795147   1.000000
   11        3.030603   1.000000
   12        3.256083   1.000000
   13        4.266958   1.000000
   14        4.411211   1.000000
   15        4.441461   1.000000
   16        4.532199   1.000000
   17        5.294983   1.000000
   18        5.323574   1.000000
   19        6.720693   0.000000
   20        6.727231   0.000000
   21        7.167228   0.000000
   22        7.174897   0.000000
   23        7.753993   0.000000
   24        7.807237   0.000000
   25       10.780029   0.000000
   26       10.797143   0.000000
   27       10.799092   0.000000
   28       10.820751   0.000000
   29       11.828842   0.000000
   30       11.835540   0.000000
   31       12.264169   0.000000
   32       12.294910   0.000000
   33       12.330332   0.000000
 
  0.6779661E-01  0.0000000E+00  0.0000000E+00  0.1851852E-02
    1       -7.796317   1.000000
    2       -7.796175   1.000000
    3       -4.429238   1.000000
    4       -4.426504   1.000000
    5       -4.411169   1.000000
    6       -4.408810   1.000000
    7        2.335487   1.000000
    8        2.493999   1.000000
    9        2.672220   1.000000
   10        2.783982   1.000000
   11        2.999048   1.000000
   12        3.244023   1.000000
   13        4.274304   1.000000
   14        4.430881   1.000000
   15        4.486164   1.000000
   16        4.580931   1.000000
   17        5.296262   1.000000
   18        5.326254   1.000000
   19        6.718284   0.000000
   20        6.727178   0.000000
   21        7.150798   0.000000
   22        7.162173   0.000000
   23        7.741580   0.000000
   24        7.801237   0.000000
   25       10.768802   0.000000
   26       10.789873   0.000000
   27       10.795623   0.000000
   28       10.815496   0.000000
   29       11.853052   0.000000
   30       11.862000   0.000000
   31       12.255372   0.000000
   32       12.280457   0.000000
   33       12.332443   0.000000
 
  0.7627119E-01  0.0000000E+00  0.0000000E+00  0.1851852E-02
    1       -7.788659   1.000000
    2       -7.788501   1.000000
    3       -4.431586   1.000000
    4       -4.428478   1.000000
    5       -4.408616   1.000000
    6       -4.406059   1.000000
    7        2.281231   1.000000
    8        2.437898   1.000000
    9        2.638047   1.000000
   10        2.768806   1.000000
   11        2.968762   1.000000
   12        3.229575   1.000000
   13        4.283947   1.000000
   14        4.450372   1.000000
   15        4.532084   1.000000
   16        4.629315   1.000000
   17        5.297181   1.000000
   18        5.327996   1.000000
   19        6.716107   0.000000
   20        6.728579   0.000000
   21        7.133520   0.000000
   22        7.149421   0.000000
   23        7.729250   0.000000
   24        7.794815   0.000000
   25       10.754691   0.000000
   26       10.780900   0.000000
   27       10.792505   0.000000
   28       10.808982   0.000000
   29       11.877203   0.000000
   30       11.888488   0.000000
   31       12.245985   0.000000
   32       12.267051   0.000000
   33       12.345027   0.000000
 
  0.8474576E-01  0.0000000E+00  0.0000000E+00  0.1851852E-02
    1       -7.780112   1.000000
    2       -7.779935   1.000000
    3       -4.434267   1.000000
    4       -4.430797   1.000000
    5       -4.405807   1.000000
    6       -4.403046   1.000000
    7        2.224936   1.000000
    8        2.378078   1.000000
    9        2.602678   1.000000
   10        2.748859   1.000000
   11        2.940353   1.000000
   12        3.212910   1.000000
   13        4.295625   1.000000
   14        4.469395   1.000000
   15        4.578070   1.000000
   16        4.676386   1.000000
   17        5.296898   1.000000
   18        5.328177   1.000000
   19        6.714697   0.000000
   20        6.732011   0.000000
   21        7.115893   0.000000
   22        7.137352   0.000000
   23        7.717200   0.000000
   24        7.788081   0.000000
   25       10.736491   0.000000
   26       10.768125   0.000000
   27       10.790032   0.000000
   28       10.802520   0.000000
   29       11.900350   0.000000
   30       11.913927   0.000000
   31       12.237560   0.000000
   32       12.256165   0.000000
   33       12.366447   0.000000
 
  0.9322034E-01  0.0000000E+00  0.0000000E+00  0.1851852E-02
    1       -7.770702   1.000000
    2       -7.770507   1.000000
    3       -4.437335   1.000000
    4       -4.433522   1.000000
    5       -4.402734   1.000000
    6       -4.399778   1.000000
    7        2.166940   1.000000
    8        2.315558   1.000000
    9        2.566042   1.000000
   10        2.724013   1.000000
   11        2.913859   1.000000
   12        3.194231   1.000000
   13        4.308901   1.000000
   14        4.487673   1.000000
   15        4.622942   1.000000
   16        4.720976   1.000000
   17        5.294822   1.000000
   18        5.326660   1.000000
   19        6.714671   0.000000
   20        6.737776   0.000000
   21        7.098365   0.000000
   22        7.126265   0.000000
   23        7.705722   0.000000
   24        7.781275   0.000000
   25       10.713812   0.000000
   26       10.750031   0.000000
   27       10.787871   0.000000
   28       10.796941   0.000000
   29       11.921838   0.000000
   30       11.937499   0.000000
   31       12.231428   0.000000
   32       12.248844   0.000000
   33       12.396622   0.000000
 
  0.1016949E+00  0.0000000E+00  0.0000000E+00  0.1851852E-02
    1       -7.760404   1.000000
    2       -7.760190   1.000000
    3       -4.440680   1.000000
    4       -4.436541   1.000000
    5       -4.399290   1.000000
    6       -4.396143   1.000000
    7        2.108203   1.000000
    8        2.251601   1.000000
    9        2.529087   1.000000
   10        2.694956   1.000000
   11        2.889665   1.000000
   12        3.173915   1.000000
   13        4.323660   1.000000
   14        4.505090   1.000000
   15        4.666045   1.000000
   16        4.762249   1.000000
   17        5.290762   1.000000
   18        5.323780   1.000000
   19        6.716768   0.000000
   20        6.746492   0.000000
   21        7.081473   0.000000
   22        7.116730   0.000000
   23        7.695151   0.000000
   24        7.774694   0.000000
   25       10.687328   0.000000
   26       10.727053   0.000000
   27       10.787909   0.000000
   28       10.794352   0.000000
   29       11.941662   0.000000
   30       11.959057   0.000000
   31       12.229128   0.000000
   32       12.246164   0.000000
   33       12.436290   0.000000
 
  0.1101695E+00  0.0000000E+00  0.0000000E+00  0.1851852E-02
    1       -7.749283   1.000000
    2       -7.749050   1.000000
    3       -4.444482   1.000000
    4       -4.440028   1.000000
    5       -4.395623   1.000000
    6       -4.392289   1.000000
    7        2.048649   1.000000
    8        2.186582   1.000000
    9        2.491200   1.000000
   10        2.662086   1.000000
   11        2.866838   1.000000
   12        3.152016   1.000000
   13        4.339304   1.000000
   14        4.521310   1.000000
   15        4.706467   1.000000
   16        4.799201   1.000000
   17        5.283478   1.000000
   18        5.318914   1.000000
   19        6.721556   0.000000
   20        6.758355   0.000000
   21        7.065558   0.000000
   22        7.108779   0.000000
   23        7.685623   0.000000
   24        7.768453   0.000000
   25       10.656592   0.000000
   26       10.698894   0.000000
   27       10.789222   0.000000
   28       10.793678   0.000000
   29       11.959649   0.000000
   30       11.978357   0.000000
   31       12.231253   0.000000
   32       12.248524   0.000000
   33       12.482581   0.000000
 
  0.1186441E+00  0.0000000E+00  0.0000000E+00  0.1851852E-02
    1       -7.737315   1.000000
    2       -7.737063   1.000000
    3       -4.448690   1.000000
    4       -4.443937   1.000000
    5       -4.391659   1.000000
    6       -4.388146   1.000000
    7        1.988944   1.000000
    8        2.121377   1.000000
    9        2.452807   1.000000
   10        2.626389   1.000000
   11        2.844990   1.000000
   12        3.128813   1.000000
   13        4.355560   1.000000
   14        4.536191   1.000000
   15        4.743635   1.000000
   16        4.831041   1.000000
   17        5.272810   1.000000
   18        5.312377   1.000000
   19        6.729612   0.000000
   20        6.773889   0.000000
   21        7.051069   0.000000
   22        7.102840   0.000000
   23        7.677464   0.000000
   24        7.762849   0.000000
   25       10.622164   0.000000
   26       10.666363   0.000000
   27       10.792368   0.000000
   28       10.795555   0.000000
   29       11.976099   0.000000
   30       11.995667   0.000000
   31       12.238807   0.000000
   32       12.256676   0.000000
   33       12.535351   0.000000
 
  0.1271186E+00  0.0000000E+00  0.0000000E+00  0.1851852E-02
    1       -7.724523   1.000000
    2       -7.724251   1.000000
    3       -4.453370   1.000000
    4       -4.448335   1.000000
    5       -4.387454   1.000000
    6       -4.383770   1.000000
    7        1.928998   1.000000
    8        2.056005   1.000000
    9        2.413890   1.000000
   10        2.588506   1.000000
   11        2.823592   1.000000
   12        3.104435   1.000000
   13        4.371874   1.000000
   14        4.549381   1.000000
   15        4.776845   1.000000
   16        4.856895   1.000000
   17        5.258479   1.000000
   18        5.304109   1.000000
   19        6.741144   0.000000
   20        6.793277   0.000000
   21        7.038237   0.000000
   22        7.099146   0.000000
   23        7.670922   0.000000
   24        7.758099   0.000000
   25       10.583799   0.000000
   26       10.629355   0.000000
   27       10.796751   0.000000
   28       10.799858   0.000000
   29       11.991349   0.000000
   30       12.011320   0.000000
   31       12.252240   0.000000
   32       12.270946   0.000000
   33       12.594167   0.000000
 
  0.1355932E+00  0.0000000E+00  0.0000000E+00  0.1851852E-02
    1       -7.710915   1.000000
    2       -7.710623   1.000000
    3       -4.458531   1.000000
    4       -4.453232   1.000000
    5       -4.382992   1.000000
    6       -4.379146   1.000000
    7        1.869315   1.000000
    8        1.991074   1.000000
    9        2.374624   1.000000
   10        2.549158   1.000000
   11        2.802271   1.000000
   12        3.079109   1.000000
   13        4.387844   1.000000
   14        4.560743   1.000000
   15        4.805315   1.000000
   16        4.876374   1.000000
   17        5.240757   1.000000
   18        5.294385   1.000000
   19        6.756220   0.000000
   20        6.816553   0.000000
   21        7.027415   0.000000
   22        7.097937   0.000000
   23        7.666338   0.000000
   24        7.754534   0.000000
   25       10.542169   0.000000
   26       10.588660   0.000000
   27       10.802805   0.000000
   28       10.806992   0.000000
   29       12.005878   0.000000
   30       12.025881   0.000000
   31       12.271741   0.000000
   32       12.291455   0.000000
   33       12.658381   0.000000
 
  0.1440678E+00  0.0000000E+00  0.0000000E+00  0.1851852E-02
    1       -7.696504   1.000000
    2       -7.696193   1.000000
    3       -4.464204   1.000000
    4       -4.458657   1.000000
    5       -4.378281   1.000000
    6       -4.374284   1.000000
    7        1.810163   1.000000
    8        1.926905   1.000000
    9        2.335111   1.000000
   10        2.508854   1.000000
   11        2.780774   1.000000
   12        3.053017   1.000000
   13        4.402933   1.000000
   14        4.570124   1.000000
   15        4.827554   1.000000
   16        4.889780   1.000000
   17        5.220198   1.000000
   18        5.283596   1.000000
   19        6.774509   0.000000
   20        6.843383   0.000000
   21        7.018951   0.000000
   22        7.099446   0.000000
   23        7.664096   0.000000
   24        7.752519   0.000000
   25       10.497702   0.000000
   26       10.544790   0.000000
   27       10.811007   0.000000
   28       10.816808   0.000000
   29       12.020230   0.000000
   30       12.040021   0.000000
   31       12.297167   0.000000
   32       12.318008   0.000000
   33       12.725901   0.000000
 
  0.1525424E+00  0.0000000E+00  0.0000000E+00  0.1851852E-02
    1       -7.681308   1.000000
    2       -7.680977   1.000000
    3       -4.470416   1.000000
    4       -4.464640   1.000000
    5       -4.373332   1.000000
    6       -4.369193   1.000000
    7        1.751785   1.000000
    8        1.863766   1.000000
    9        2.295447   1.000000
   10        2.467979   1.000000
   11        2.758958   1.000000
   12        3.026328   1.000000
   13        4.416472   1.000000
   14        4.577458   1.000000
   15        4.840488   1.000000
   16        4.899146   1.000000
   17        5.197652   1.000000
   18        5.272310   1.000000
   19        6.795313   0.000000
   20        6.872912   0.000000
   21        7.013403   0.000000
   22        7.103895   0.000000
   23        7.664667   0.000000
   24        7.752503   0.000000
   25       10.450844   0.000000
   26       10.498255   0.000000
   27       10.821682   0.000000
   28       10.829299   0.000000
   29       12.034993   0.000000
   30       12.054462   0.000000
   31       12.328157   0.000000
   32       12.350182   0.000000
   33       12.793485   0.000000
 
  0.1610169E+00  0.0000000E+00  0.0000000E+00  0.1851852E-02
    1       -7.665344   1.000000
    2       -7.664993   1.000000
    3       -4.477197   1.000000
    4       -4.471210   1.000000
    5       -4.368154   1.000000
    6       -4.363886   1.000000
    7        1.694400   1.000000
    8        1.801888   1.000000
    9        2.255723   1.000000
   10        2.426829   1.000000
   11        2.736756   1.000000
   12        2.999203   1.000000
   13        4.427582   1.000000
   14        4.582851   1.000000
   15        4.839847   1.000000
   16        4.907990   1.000000
   17        5.174171   1.000000
   18        5.261172   1.000000
   19        6.817597   0.000000
   20        6.903372   0.000000
   21        7.011933   0.000000
   22        7.111464   0.000000
   23        7.668623   0.000000
   24        7.755027   0.000000
   25       10.402034   0.000000
   26       10.449544   0.000000
   27       10.835037   0.000000
   28       10.844554   0.000000
   29       12.050751   0.000000
   30       12.069891   0.000000
   31       12.364227   0.000000
   32       12.387434   0.000000
   33       12.864461   0.000000
 
  0.1694915E+00  0.0000000E+00  0.0000000E+00  0.1851852E-02
    1       -7.648610   1.000000
    2       -7.648239   1.000000
    3       -4.484565   1.000000
    4       -4.478387   1.000000
    5       -4.362760   1.000000
    6       -4.358373   1.000000
    7        1.638211   1.000000
    8        1.741471   1.000000
    9        2.216026   1.000000
   10        2.385633   1.000000
   11        2.714163   1.000000
   12        2.971787   1.000000
   13        4.435103   1.000000
   14        4.586703   1.000000
   15        4.824375   1.000000
   16        4.917442   1.000000
   17        5.150927   1.000000
   18        5.250769   1.000000
   19        6.840096   0.000000
   20        6.931313   0.000000
   21        7.017117   0.000000
   22        7.122211   0.000000
   23        7.676709   0.000000
   24        7.760804   0.000000
   25       10.351688   0.000000
   26       10.399124   0.000000
   27       10.851231   0.000000
   28       10.862679   0.000000
   29       12.068030   0.000000
   30       12.086898   0.000000
   31       12.404875   0.000000
   32       12.429199   0.000000
   33       12.936046   0.000000
 
  0.1779661E+00  0.0000000E+00  0.0000000E+00  0.1851852E-02
    1       -7.631167   1.000000
    2       -7.630775   1.000000
    3       -4.492564   1.000000
    4       -4.486214   1.000000
    5       -4.357161   1.000000
    6       -4.352667   1.000000
    7        1.583390   1.000000
    8        1.682682   1.000000
    9        2.176440   1.000000
   10        2.344573   1.000000
   11        2.691193   1.000000
   12        2.944215   1.000000
   13        4.437462   1.000000
   14        4.589693   1.000000
   15        4.795975   1.000000
   16        4.925695   1.000000
   17        5.128941   1.000000
   18        5.241299   1.000000
   19        6.861482   0.000000
   20        6.951830   0.000000
   21        7.032768   0.000000
   22        7.135924   0.000000
   23        7.689626   0.000000
   24        7.770492   0.000000
   25       10.300195   0.000000
   26       10.347407   0.000000
   27       10.870400   0.000000
   28       10.883778   0.000000
   29       12.087280   0.000000
   30       12.105962   0.000000
   31       12.449580   0.000000
   32       12.474929   0.000000
   33       13.013539   0.000000
 
  0.1864407E+00  0.0000000E+00  0.0000000E+00  0.1851852E-02
    1       -7.613016   1.000000
    2       -7.612604   1.000000
    3       -4.501211   1.000000
    4       -4.494707   1.000000
    5       -4.351370   1.000000
    6       -4.346782   1.000000
    7        1.530100   1.000000
    8        1.625674   1.000000
    9        2.137043   1.000000
   10        2.303796   1.000000
   11        2.667899   1.000000
   12        2.916610   1.000000
   13        4.432970   1.000000
   14        4.592800   1.000000
   15        4.757126   1.000000
   16        4.931342   1.000000
   17        5.109207   1.000000
   18        5.232832   1.000000
   19        6.880584   0.000000
   20        6.963809   0.000000
   21        7.058782   0.000000
   22        7.152017   0.000000
   23        7.708307   0.000000
   24        7.785023   0.000000
   25       10.247907   0.000000
   26       10.294778   0.000000
   27       10.892657   0.000000
   28       10.907943   0.000000
   29       12.108866   0.000000
   30       12.127452   0.000000
   31       12.497890   0.000000
   32       12.524144   0.000000
   33       13.080482   0.000000
 
  0.1949153E+00  0.0000000E+00  0.0000000E+00  0.1851852E-02
    1       -7.594182   1.000000
    2       -7.593750   1.000000
    3       -4.510526   1.000000
    4       -4.503890   1.000000
    5       -4.345400   1.000000
    6       -4.340729   1.000000
    7        1.478485   1.000000
    8        1.570576   1.000000
    9        2.097914   1.000000
   10        2.263424   1.000000
   11        2.644345   1.000000
   12        2.889089   1.000000
   13        4.420197   1.000000
   14        4.596830   1.000000
   15        4.709853   1.000000
   16        4.933791   1.000000
   17        5.092408   1.000000
   18        5.225195   1.000000
   19        6.896587   0.000000
   20        6.971406   0.000000
   21        7.089726   0.000000
   22        7.169489   0.000000
   23        7.733603   0.000000
   24        7.805308   0.000000
   25       10.195142   0.000000
   26       10.241577   0.000000
   27       10.918100   0.000000
   28       10.935253   0.000000
   29       12.133078   0.000000
   30       12.151649   0.000000
   31       12.549389   0.000000
   32       12.576416   0.000000
   33       13.155499   0.000000
 
  0.2033898E+00  0.0000000E+00  0.0000000E+00  0.1851852E-02
    1       -7.574698   1.000000
    2       -7.574245   1.000000
    3       -4.520532   1.000000
    4       -4.513784   1.000000
    5       -4.339266   1.000000
    6       -4.334525   1.000000
    7        1.428669   1.000000
    8        1.517500   1.000000
    9        2.059126   1.000000
   10        2.223562   1.000000
   11        2.620605   1.000000
   12        2.861755   1.000000
   13        4.398470   1.000000
   14        4.601853   1.000000
   15        4.656073   1.000000
   16        4.933103   1.000000
   17        5.078780   1.000000
   18        5.218141   1.000000
   19        6.909165   0.000000
   20        6.978061   0.000000
   21        7.120860   0.000000
   22        7.187075   0.000000
   23        7.766193   0.000000
   24        7.832187   0.000000
   25       10.142186   0.000000
   26       10.188105   0.000000
   27       10.946810   0.000000
   28       10.965772   0.000000
   29       12.160140   0.000000
   30       12.178761   0.000000
   31       12.603702   0.000000
   32       12.631371   0.000000
   33       13.230248   0.000000
 
  0.2118644E+00  0.0000000E+00  0.0000000E+00  0.1851852E-02
    1       -7.554595   1.000000
    2       -7.554122   1.000000
    3       -4.531248   1.000000
    4       -4.524408   1.000000
    5       -4.332983   1.000000
    6       -4.328184   1.000000
    7        1.380763   1.000000
    8        1.466544   1.000000
    9        2.020749   1.000000
   10        2.184300   1.000000
   11        2.596755   1.000000
   12        2.834705   1.000000
   13        4.367956   1.000000
   14        4.592574   1.000000
   15        4.612253   1.000000
   16        4.929825   1.000000
   17        5.068026   1.000000
   18        5.211448   1.000000
   19        6.918527   0.000000
   20        6.985139   0.000000
   21        7.149520   0.000000
   22        7.203535   0.000000
   23        7.806434   0.000000
   24        7.866292   0.000000
   25       10.089289   0.000000
   26       10.134627   0.000000
   27       10.978850   0.000000
   28       10.999551   0.000000