    4    4    1    1
  0.2546802E+02  0.4173490E-09  0.4173490E-09  0.6753451E-09  0.5000000E-15
  1.000000000000000E-004
  CAR 
 unknown system                          
     38     60     63
 
  0.0000000E+00  0.0000000E+00  0.1500000E+00  0.1666667E-01
    1      -44.532432   1.000000
    2      -44.532430   1.000000
    3      -44.532426   1.000000
    4      -44.532426   1.000000
    5      -44.520621   1.000000
    6      -44.520598   1.000000
    7      -39.900641   1.000000
    8      -39.900640   1.000000
    9      -39.900343   1.000000
   10      -39.900342   1.000000
   11      -39.898033   1.000000
   12      -39.898008   1.000000
   13       -5.855381   1.000000
   14       -5.855213   1.000000
   15       -4.761456   1.000000
   16       -4.761023   1.000000
   17        0.762970   1.000000
   18        0.763022   1.000000
   19        1.838611   1.000000
   20        1.839048   1.000000
   21        1.839093   1.000000
   22        1.839280   1.000000
   23        2.277953   1.000000
   24        2.278094   1.000000
   25        2.278241   1.000000
   26        2.278364   1.000000
   27        2.439824   1.000000
   28        2.442571   1.000000
   29        5.031426   1.000000
   30        5.031948   1.000000
   31        5.032087   1.000000
   32        5.032781   1.000000
   33        5.323140   1.000000
   34        5.323258   1.000000
   35        5.827958   1.000000
   36        5.829101   1.000000
   37        5.829536   1.000000
   38        5.830639   1.000000
   39        7.689267   0.000000
   40        7.695406   0.000000
   41        7.755732   0.000000
   42        7.756440   0.000000
   43        7.756676   0.000000
   44        7.756986   0.000000
   45        8.764313   0.000000
   46        8.765922   0.000000
   47        8.780154   0.000000
   48        8.780354   0.000000
   49        8.780761   0.000000
   50        8.780970   0.000000
   51        9.210570   0.000000
   52        9.220465   0.000000
   53       11.442036   0.000000
   54       11.442403   0.000000
   55       11.443656   0.000000
   56       11.443778   0.000000
   57       12.929250   0.000000
   58       12.929611   0.000000
   59       12.929864   0.000000
   60       12.930469   0.000000
   61       13.372068   0.000000
   62       13.373951   0.000000
   63       13.686453   0.000000
 
  0.2631579E-01  0.0000000E+00  0.1500000E+00  0.1666667E-01
    1      -44.532074   1.000000
    2      -44.532070   1.000000
    3      -44.531647   1.000000
    4      -44.531635   1.000000
    5      -44.519751   1.000000
    6      -44.519724   1.000000
    7      -39.900286   1.000000
    8      -39.900263   1.000000
    9      -39.899776   1.000000
   10      -39.899740   1.000000
   11      -39.897144   1.000000
   12      -39.897115   1.000000
   13       -5.849973   1.000000
   14       -5.849801   1.000000
   15       -4.758908   1.000000
   16       -4.758471   1.000000
   17        0.769216   1.000000
   18        0.769348   1.000000
   19        1.836923   1.000000
   20        1.838659   1.000000
   21        1.839661   1.000000
   22        1.841229   1.000000
   23        2.276598   1.000000
   24        2.277267   1.000000
   25        2.277320   1.000000
   26        2.278175   1.000000
   27        2.440541   1.000000
   28        2.443301   1.000000
   29        4.919552   1.000000
   30        4.984948   1.000000
   31        4.993228   1.000000
   32        5.072133   1.000000
   33        5.368910   1.000000
   34        5.380160   1.000000
   35        5.705952   1.000000
   36        5.750265   1.000000
   37        5.836788   1.000000
   38        5.886617   1.000000
   39        7.709106   0.000000
   40        7.714208   0.000000
   41        7.751604   0.000000
   42        7.753250   0.000000
   43        7.773365   0.000000
   44        7.776453   0.000000
   45        8.622041   0.000000
   46        8.653111   0.000000
   47        8.736336   0.000000
   48        8.812059   0.000000
   49        8.872571   0.000000
   50        8.911700   0.000000
   51        9.287712   0.000000
   52        9.297556   0.000000
   53       11.410834   0.000000
   54       11.442819   0.000000
   55       11.453484   0.000000
   56       11.485357   0.000000
   57       12.749875   0.000000
   58       12.830059   0.000000
   59       12.871269   0.000000
   60       12.959404   0.000000
   61       13.365952   0.000000
   62       13.369946   0.000000
   63       13.789364   0.000000
 
  0.5263158E-01  0.0000000E+00  0.1500000E+00  0.1666667E-01
    1      -44.532000   1.000000
    2      -44.531947   1.000000
    3      -44.531829   1.000000
    4      -44.531819   1.000000
    5      -44.520007   1.000000
    6      -44.519976   1.000000
    7      -39.900182   1.000000
    8      -39.900174   1.000000
    9      -39.899927   1.000000
   10      -39.899907   1.000000
   11      -39.897403   1.000000
   12      -39.897356   1.000000
   13       -5.833817   1.000000
   14       -5.833628   1.000000
   15       -4.751362   1.000000
   16       -4.750905   1.000000
   17        0.787496   1.000000
   18        0.788253   1.000000
   19        1.831875   1.000000
   20        1.836125   1.000000
   21        1.842074   1.000000
   22        1.845552   1.000000
   23        2.272053   1.000000
   24        2.272652   1.000000
   25        2.275184   1.000000
   26        2.276348   1.000000
   27        2.440889   1.000000
   28        2.443740   1.000000
   29        4.735592   1.000000
   30        4.860570   1.000000
   31        4.931208   1.000000
   32        5.105455   1.000000
   33        5.404907   1.000000
   34        5.437941   1.000000
   35        5.571785   1.000000
   36        5.652716   1.000000
   37        5.735622   1.000000
   38        5.920273   1.000000
   39        7.707294   0.000000
   40        7.728478   0.000000
   41        7.767854   0.000000
   42        7.800550   0.000000
   43        7.809940   0.000000
   44        7.818892   0.000000
   45        8.478764   0.000000
   46        8.528170   0.000000
   47        8.683328   0.000000
   48        8.828759   0.000000
   49        8.992720   0.000000
   50        9.057365   0.000000
   51        9.465210   0.000000
   52        9.480192   0.000000
   53       11.357440   0.000000
   54       11.414539   0.000000
   55       11.518259   0.000000
   56       11.574951   0.000000
   57       12.428356   0.000000
   58       12.574901   0.000000
   59       12.787250   0.000000
   60       12.956743   0.000000
   61       13.341906   0.000000
   62       13.349094   0.000000
   63       13.891400   0.000000
 
  0.7894737E-01  0.0000000E+00  0.1500000E+00  0.1666667E-01
    1      -44.533111   1.000000
    2      -44.533095   1.000000
    3      -44.532495   1.000000
    4      -44.532467   1.000000
    5      -44.520872   1.000000
    6      -44.520838   1.000000
    7      -39.901132   1.000000
    8      -39.901092   1.000000
    9      -39.900603   1.000000
   10      -39.900563   1.000000
   11      -39.898222   1.000000
   12      -39.898186   1.000000
   13       -5.807096   1.000000
   14       -5.806856   1.000000
   15       -4.739037   1.000000
   16       -4.738502   1.000000
   17        0.817257   1.000000
   18        0.819749   1.000000
   19        1.824346   1.000000
   20        1.831941   1.000000
   21        1.845720   1.000000
   22        1.851773   1.000000
   23        2.263872   1.000000
   24        2.264143   1.000000
   25        2.272105   1.000000
   26        2.272562   1.000000
   27        2.440498   1.000000
   28        2.444064   1.000000
   29        4.523089   1.000000
   30        4.693351   1.000000
   31        4.870829   1.000000
   32        5.131709   1.000000
   33        5.158081   1.000000
   34        5.475126   1.000000
   35        5.541131   1.000000
   36        5.574734   1.000000
   37        5.647991   1.000000
   38        5.930775   1.000000
   39        7.680282   0.000000
   40        7.721033   0.000000
   41        7.798443   0.000000
   42        7.852296   0.000000
   43        7.863614   0.000000
   44        7.882204   0.000000
   45        8.369522   0.000000
   46        8.419920   0.000000
   47        8.627079   0.000000
   48        8.831596   0.000000
   49        9.160885   0.000000
   50        9.239059   0.000000
   51        9.680833   0.000000
   52        9.692956   0.000000
   53       11.306948   0.000000
   54       11.374594   0.000000
   55       11.635339   0.000000
   56       11.703325   0.000000
   57       12.072173   0.000000
   58       12.285609   0.000000
   59       12.682389   0.000000
   60       12.922758   0.000000
   61       13.286333   0.000000
   62       13.294289   0.000000
   63       13.794688   0.000000
 
  0.1052632E+00  0.0000000E+00  0.1500000E+00  0.1666667E-01
    1      -44.532672   1.000000
    2      -44.532622   1.000000
    3      -44.532605   1.000000
    4      -44.532586   1.000000
    5      -44.520466   1.000000
    6      -44.520395   1.000000
    7      -39.900877   1.000000
    8      -39.900835   1.000000
    9      -39.900624   1.000000
   10      -39.900577   1.000000
   11      -39.897818   1.000000
   12      -39.897752   1.000000
   13       -5.770072   1.000000
   14       -5.769710   1.000000
   15       -4.722298   1.000000
   16       -4.721529   1.000000
   17        0.857680   1.000000
   18        0.863659   1.000000
   19        1.815704   1.000000
   20        1.827449   1.000000
   21        1.851401   1.000000
   22        1.859822   1.000000
   23        2.251964   1.000000
   24        2.252025   1.000000
   25        2.268654   1.000000
   26        2.269006   1.000000
   27        2.438269   1.000000
   28        2.444715   1.000000
   29        4.295861   1.000000
   30        4.505733   1.000000
   31        4.804525   1.000000
   32        4.850364   1.000000
   33        5.150316   1.000000
   34        5.323128   1.000000
   35        5.421048   1.000000
   36        5.535389   1.000000
   37        5.743083   1.000000
   38        5.920664   1.000000
   39        7.643792   0.000000
   40        7.701787   0.000000
   41        7.840824   0.000000
   42        7.899945   0.000000
   43        7.900595   0.000000
   44        7.932177   0.000000
   45        8.312072   0.000000
   46        8.342471   0.000000
   47        8.575283   0.000000
   48        8.825066   0.000000
   49        9.366092   0.000000
   50        9.453568   0.000000
   51        9.875029   0.000000
   52        9.901638   0.000000
   53       11.284341   0.000000
   54       11.346960   0.000000
   55       11.734076   0.000000
   56       11.799530   0.000000
   57       11.858010   0.000000
   58       12.005518   0.000000
   59       12.562336   0.000000
   60       12.866683   0.000000
   61       13.141288   0.000000
   62       13.199185   0.000000
   63       13.635086   0.000000
 
  0.1315789E+00  0.0000000E+00  0.1500000E+00  0.1666667E-01
    1      -44.532476   1.000000
    2      -44.532465   1.000000
    3      -44.532124   1.000000
    4      -44.532100   1.000000
    5      -44.520308   1.000000
    6      -44.520252   1.000000
    7      -39.900685   1.000000
    8      -39.900648   1.000000
    9      -39.900242   1.000000
   10      -39.900236   1.000000
   11      -39.897667   1.000000
   12      -39.897617   1.000000
   13       -5.723151   1.000000
   14       -5.722559   1.000000
   15       -4.701674   1.000000
   16       -4.700426   1.000000
   17        0.907439   1.000000
   18        0.919546   1.000000
   19        1.805860   1.000000
   20        1.824168   1.000000
   21        1.858403   1.000000
   22        1.868924   1.000000
   23        2.232269   1.000000
   24        2.234422   1.000000
   25        2.265278   1.000000
   26        2.265893   1.000000
   27        2.432251   1.000000
   28        2.445005   1.000000
   29        4.064271   1.000000
   30        4.299117   1.000000
   31        4.537741   1.000000
   32        4.732909   1.000000
   33        5.089478   1.000000
   34        5.155617   1.000000
   35        5.302268   1.000000
   36        5.528848   1.000000
   37        5.822115   1.000000
   38        5.893743   1.000000
   39        7.596124   0.000000
   40        7.673255   0.000000
   41        7.888497   0.000000
   42        7.911041   0.000000
   43        7.949640   0.000000
   44        7.957776   0.000000
   45        8.303006   0.000000
   46        8.307754   0.000000
   47        8.534226   0.000000
   48        8.813617   0.000000
   49        9.573374   0.000000
   50        9.678483   0.000000
   51        9.982280   0.000000
   52       10.089182   0.000000
   53       11.206224   0.000000
   54       11.351285   0.000000
   55       11.563674   0.000000
   56       11.772778   0.000000
   57       12.000522   0.000000
   58       12.015096   0.000000
   59       12.436031   0.000000
   60       12.813062   0.000000
   61       12.916601   0.000000
   62       13.040079   0.000000
   63       13.547221   0.000000
 
  0.1578947E+00  0.0000000E+00  0.1500000E+00  0.1666667E-01
    1      -44.532904   1.000000
    2      -44.532862   1.000000
    3      -44.532182   1.000000
    4      -44.532161   1.000000
    5      -44.520419   1.000000
    6      -44.520362   1.000000
    7      -39.901073   1.000000
    8      -39.901006   1.000000
    9      -39.900378   1.000000
   10      -39.900373   1.000000
   11      -39.897735   1.000000
   12      -39.897682   1.000000
   13       -5.666867   1.000000
   14       -5.665913   1.000000
   15       -4.677794   1.000000
   16       -4.675789   1.000000
   17        0.964816   1.000000
   18        0.986730   1.000000
   19        1.795597   1.000000
   20        1.823519   1.000000
   21        1.865514   1.000000
   22        1.878419   1.000000
   23        2.200582   1.000000
   24        2.208273   1.000000
   25        2.262281   1.000000
   26        2.263845   1.000000
   27        2.421379   1.000000
   28        2.444720   1.000000
   29        3.840201   1.000000
   30        4.065460   1.000000
   31        4.249728   1.000000
   32        4.656813   1.000000
   33        4.845615   1.000000
   34        5.109461   1.000000
   35        5.226604   1.000000
   36        5.496410   1.000000
   37        5.854195   1.000000
   38        5.880052   1.000000
   39        7.537459   0.000000
   40        7.635581   0.000000
   41        7.915383   0.000000
   42        7.934502   0.000000
   43        7.966327   0.000000
   44        7.996487   0.000000
   45        8.297003   0.000000
   46        8.341991   0.000000
   47        8.508774   0.000000
   48        8.801563   0.000000
   49        9.734110   0.000000
   50        9.866984   0.000000
   51       10.003503   0.000000
   52       10.212981   0.000000
   53       10.970419   0.000000
   54       11.350146   0.000000
   55       11.680201   0.000000
   56       11.706710   0.000000
   57       12.124712   0.000000
   58       12.178156   0.000000
   59       12.362354   0.000000
   60       12.682233   0.000000
   61       12.815885   0.000000
   62       12.853593   0.000000
   63       13.501329   0.000000
 
  0.1842105E+00  0.0000000E+00  0.1500000E+00  0.1666667E-01
    1      -44.531978   1.000000
    2      -44.531956   1.000000
    3      -44.531822   1.000000
    4      -44.531805   1.000000
    5      -44.520033   1.000000
    6      -44.519990   1.000000
    7      -39.900271   1.000000
    8      -39.900267   1.000000
    9      -39.900001   1.000000
   10      -39.899991   1.000000
   11      -39.897438   1.000000
   12      -39.897387   1.000000
   13       -5.601917   1.000000
   14       -5.600439   1.000000
   15       -4.651437   1.000000
   16       -4.648374   1.000000
   17        1.027575   1.000000
   18        1.064203   1.000000
   19        1.785948   1.000000
   20        1.828214   1.000000
   21        1.872799   1.000000
   22        1.887683   1.000000
   23        2.149314   1.000000
   24        2.170246   1.000000
   25        2.261775   1.000000
   26        2.264089   1.000000
   27        2.406441   1.000000
   28        2.444146   1.000000
   29        3.637379   1.000000
   30        3.802188   1.000000
   31        4.005255   1.000000
   32        4.577491   1.000000
   33        4.601215   1.000000
   34        4.994638   1.000000
   35        5.214975   1.000000
   36        5.438093   1.000000
   37        5.806164   1.000000
   38        5.914849   1.000000
   39        7.472384   0.000000
   40        7.589174   0.000000
   41        7.926737   0.000000
   42        7.973227   0.000000
   43        7.974590   0.000000
   44        8.039415   0.000000
   45        8.310195   0.000000
   46        8.400734   0.000000
   47        8.503173   0.000000
   48        8.792346   0.000000
   49        9.794997   0.000000
   50        9.881091   0.000000
   51       10.023550   0.000000
   52       10.265816   0.000000
   53       10.800431   0.000000
   54       11.294535   0.000000
   55       11.794314   0.000000
   56       11.971880   0.000000
   57       12.107506   0.000000
   58       12.130527   0.000000
   59       12.501923   0.000000
   60       12.565437   0.000000
   61       12.689084   0.000000
   62       12.936827   0.000000
   63       13.476159   0.000000
 
  0.2105263E+00  0.0000000E+00  0.1500000E+00  0.1666667E-01
    1      -44.532107   1.000000
    2      -44.532082   1.000000
    3      -44.531883   1.000000
    4      -44.531846   1.000000
    5      -44.519646   1.000000
    6      -44.519612   1.000000
    7      -39.900460   1.000000
    8      -39.900443   1.000000
    9      -39.900066   1.000000
   10      -39.900060   1.000000
   11      -39.897045   1.000000
   12      -39.897005   1.000000
   13       -5.529144   1.000000
   14       -5.526953   1.000000
   15       -4.623525   1.000000
   16       -4.619089   1.000000
   17        1.092747   1.000000
   18        1.150375   1.000000
   19        1.776717   1.000000
   20        1.840587   1.000000
   21        1.878640   1.000000
   22        1.895489   1.000000
   23        2.067782   1.000000
   24        2.114835   1.000000
   25        2.263599   1.000000
   26        2.267022   1.000000
   27        2.389766   1.000000
   28        2.443828   1.000000
   29        3.469066   1.000000
   30        3.537085   1.000000
   31        3.791210   1.000000
   32        4.360925   1.000000
   33        4.495991   1.000000
   34        4.865477   1.000000
   35        5.215716   1.000000
   36        5.357089   1.000000
   37        5.752932   1.000000
   38        5.924964   1.000000
   39        7.406286   0.000000
   40        7.535001   0.000000
   41        7.946987   0.000000
   42        7.993585   0.000000
   43        8.001548   0.000000
   44        8.076181   0.000000
   45        8.327871   0.000000
   46        8.475524   0.000000
   47        8.516807   0.000000
   48        8.787204   0.000000
   49        9.731082   0.000000
   50        9.738435   0.000000
   51        9.989067   0.000000
   52       10.266701   0.000000
   53       10.792242   0.000000
   54       11.257940   0.000000
   55       11.957965   0.000000
   56       11.972238   0.000000
   57       12.050387   0.000000
   58       12.245591   0.000000
   59       12.457783   0.000000
   60       12.602814   0.000000
   61       12.860380   0.000000
   62       13.161657   0.000000
   63       13.466214   0.000000
 
  0.2368421E+00  0.0000000E+00  0.1500000E+00  0.1666667E-01
    1      -44.531703   1.000000
    2      -44.531686   1.000000
    3      -44.531240   1.000000
    4      -44.531192   1.000000
    5      -44.519748   1.000000
    6      -44.519696   1.000000
    7      -39.900027   1.000000
    8      -39.899994   1.000000
    9      -39.899687   1.000000
   10      -39.899681   1.000000
   11      -39.897045   1.000000
   12      -39.896989   1.000000
   13       -5.449527   1.000000
   14       -5.446409   1.000000
   15       -4.595133   1.000000
   16       -4.589010   1.000000
   17        1.156973   1.000000
   18        1.242539   1.000000
   19        1.767584   1.000000
   20        1.862798   1.000000
   21        1.882720   1.000000
   22        1.900993   1.000000
   23        1.950502   1.000000
   24        2.037936   1.000000
   25        2.269324   1.000000
   26        2.273581   1.000000
   27        2.375086   1.000000
   28        2.444801   1.000000
   29        3.297612   1.000000
   30        3.343547   1.000000
   31        3.594642   1.000000
   32        4.128363   1.000000
   33        4.413753   1.000000
   34        4.736283   1.000000
   35        5.217177   1.000000
   36        5.257637   1.000000
   37        5.697007   1.000000
   38        5.909799   1.000000
   39        7.343706   0.000000
   40        7.476399   0.000000
   41        7.974381   0.000000
   42        8.021141   0.000000
   43        8.026025   0.000000
   44        8.107355   0.000000
   45        8.338989   0.000000
   46        8.545828   0.000000
   47        8.561039   0.000000
   48        8.786320   0.000000
   49        9.532911   0.000000
   50        9.572131   0.000000
   51        9.907266   0.000000
   52       10.239081   0.000000
   53       10.859876   0.000000
   54       11.215247   0.000000
   55       11.834896   0.000000
   56       11.932933   0.000000
   57       12.059249   0.000000
   58       12.353684   0.000000
   59       12.615716   0.000000
   60       12.745496   0.000000
   61       13.183754   0.000000
   62       13.444409   0.000000
   63       13.477512   0.000000
 
  0.2631579E+00  0.0000000E+00  0.1500000E+00  0.1666667E-01
    1      -44.531547   1.000000
    2      -44.531538   1.000000
    3      -44.530041   1.000000
    4      -44.529969   1.000000
    5      -44.519881   1.000000
    6      -44.519829   1.000000
    7      -39.899862   1.000000
    8      -39.899823   1.000000
    9      -39.898564   1.000000
   10      -39.898499   1.000000
   11      -39.897288   1.000000
   12      -39.897241   1.000000
   13       -5.364289   1.000000
   14       -5.360007   1.000000
   15       -4.567479   1.000000
   16       -4.559379   1.000000
   17        1.216809   1.000000
   18        1.335233   1.000000
   19        1.753178   1.000000
   20        1.795215   1.000000
   21        1.884808   1.000000
   22        1.902221   1.000000
   23        1.903568   1.000000
   24        1.943658   1.000000
   25        2.279447   1.000000
   26        2.283879   1.000000
   27        2.365046   1.000000
   28        2.448562   1.000000
   29        3.095882   1.000000
   30        3.258975   1.000000
   31        3.414381   1.000000
   32        3.907199   1.000000
   33        4.332258   1.000000
   34        4.610724   1.000000
   35        5.144118   1.000000
   36        5.218383   1.000000
   37        5.640951   1.000000
   38        5.869164   1.000000
   39        7.287164   0.000000
   40        7.416702   0.000000
   41        8.006354   0.000000
   42        8.035490   0.000000
   43        8.068219   0.000000
   44        8.133432   0.000000
   45        8.332492   0.000000
   46        8.584063   0.000000
   47        8.650233   0.000000
   48        8.788458   0.000000
   49        9.322358   0.000000
   50        9.366266   0.000000
   51        9.832966   0.000000
   52       10.199765   0.000000
   53       10.904283   0.000000
   54       11.128121   0.000000
   55       11.703088   0.000000
   56       11.804331   0.000000
   57       12.147220   0.000000
   58       12.359888   0.000000
   59       12.867811   0.000000
   60       13.028085   0.000000
   61       13.526438   0.000000
   62       13.526981   0.000000
   63       13.760706   0.000000
 
  0.2894737E+00  0.0000000E+00  0.1500000E+00  0.1666667E-01
    1      -44.531283   1.000000
    2      -44.531257   1.000000
    3      -44.530540   1.000000
    4      -44.530507   1.000000
    5      -44.519727   1.000000
    6      -44.519699   1.000000
    7      -39.899627   1.000000
    8      -39.899623   1.000000
    9      -39.899069   1.000000
   10      -39.899064   1.000000
   11      -39.897119   1.000000
   12      -39.897086   1.000000
   13       -5.274907   1.000000
   14       -5.269210   1.000000
   15       -4.541905   1.000000
   16       -4.531591   1.000000
   17        1.269082   1.000000
   18        1.412490   1.000000
   19        1.624109   1.000000
   20        1.714403   1.000000
   21        1.866020   1.000000
   22        1.884670   1.000000
   23        1.903268   1.000000
   24        1.948834   1.000000
   25        2.293707   1.000000
   26        2.298002   1.000000
   27        2.360404   1.000000
   28        2.457379   1.000000
   29        2.931129   1.000000
   30        3.203028   1.000000
   31        3.254568   1.000000
   32        3.703912   1.000000
   33        4.253051   1.000000
   34        4.490892   1.000000
   35        5.021007   1.000000
   36        5.219457   1.000000
   37        5.586405   1.000000
   38        5.802532   1.000000
   39        7.238001   0.000000
   40        7.358274   0.000000
   41        8.041079   0.000000
   42        8.048485   0.000000
   43        8.110975   0.000000
   44        8.155164   0.000000
   45        8.299612   0.000000
   46        8.625424   0.000000
   47        8.726463   0.000000
   48        8.792346   0.000000
   49        9.149707   0.000000
   50        9.157261   0.000000
   51        9.779309   0.000000
   52       10.158391   0.000000
   53       10.898354   0.000000
   54       11.010333   0.000000
   55       11.579962   0.000000
   56       11.676198   0.000000
   57       12.232706   0.000000
   58       12.376648   0.000000
   59       13.095886   0.000000
   60       13.299898   0.000000
   61       13.647440   0.000000
   62       13.884414   0.000000
   63       13.959567   0.000000
 
  0.3157895E+00  0.0000000E+00  0.1500000E+00  0.1666667E-01
    1      -44.531003   1.000000
    2      -44.530970   1.000000
    3      -44.530792   1.000000
    4      -44.530791   1.000000
    5      -44.519585   1.000000
    6      -44.519554   1.000000
    7      -39.899482   1.000000
    8      -39.899473   1.000000
    9      -39.899238   1.000000
   10      -39.899226   1.000000
   11      -39.897015   1.000000
   12      -39.896975   1.000000
   13       -5.183026   1.000000
   14       -5.175667   1.000000
   15       -4.519838   1.000000
   16       -4.507171   1.000000
   17        1.304372   1.000000
   18        1.415394   1.000000
   19        1.455452   1.000000
   20        1.679825   1.000000
   21        1.842189   1.000000
   22        1.882720   1.000000
   23        1.900265   1.000000
   24        2.004757   1.000000
   25        2.311880   1.000000
   26        2.315411   1.000000
   27        2.362868   1.000000
   28        2.472554   1.000000
   29        2.794673   1.000000
   30        3.121394   1.000000
   31        3.153757   1.000000
   32        3.532516   1.000000
   33        4.177907   1.000000
   34        4.378502   1.000000
   35        4.893637   1.000000
   36        5.220740   1.000000
   37        5.534311   1.000000
   38        5.710472   1.000000
   39        7.196433   0.000000
   40        7.303391   0.000000
   41        8.062805   0.000000
   42        8.078231   0.000000
   43        8.122322   0.000000
   44        8.173614   0.000000
   45        8.263827   0.000000
   46        8.665356   0.000000
   47        8.731008   0.000000
   48        8.796489   0.000000
   49        9.016650   0.000000
   50        9.033929   0.000000
   51        9.750806   0.000000
   52       10.120492   0.000000
   53       10.852777   0.000000
   54       10.887072   0.000000
   55       11.467881   0.000000
   56       11.554780   0.000000
   57       12.288904   0.000000
   58       12.397703   0.000000
   59       13.238790   0.000000
   60       13.511964   0.000000
   61       13.870552   0.000000
   62       14.126611   0.000000
   63       14.251500   0.000000
 
  0.3421053E+00  0.0000000E+00  0.1500000E+00  0.1666667E-01
    1      -44.531026   1.000000
    2      -44.530990   1.000000
    3      -44.530742   1.000000
    4      -44.530719   1.000000
    5      -44.519693   1.000000
    6      -44.519629   1.000000
    7      -39.899508   1.000000
    8      -39.899466   1.000000
    9      -39.899262   1.000000
   10      -39.899224   1.000000
   11      -39.897101   1.000000
   12      -39.897049   1.000000
   13       -5.090553   1.000000
   14       -5.081329   1.000000
   15       -4.502754   1.000000
   16       -4.487747   1.000000
   17        1.232359   1.000000
   18        1.302570   1.000000
   19        1.394501   1.000000
   20        1.723876   1.000000
   21        1.847664   1.000000
   22        1.879161   1.000000
   23        1.895221   1.000000
   24        2.062234   1.000000
   25        2.332311   1.000000
   26        2.335175   1.000000
   27        2.374771   1.000000
   28        2.491840   1.000000
   29        2.681152   1.000000
   30        3.018644   1.000000
   31        3.076072   1.000000
   32        3.420136   1.000000
   33        4.108552   1.000000
   34        4.274985   1.000000
   35        4.768478   1.000000
   36        5.222749   1.000000
   37        5.485571   1.000000
   38        5.594148   1.000000
   39        7.162779   0.000000
   40        7.253361   0.000000
   41        8.055979   0.000000
   42        8.079434   0.000000
   43        8.117215   0.000000
   44        8.188922   0.000000
   45        8.281043   0.000000
   46        8.593965   0.000000
   47        8.701016   0.000000
   48        8.799719   0.000000
   49        8.968225   0.000000
   50        9.017974   0.000000
   51        9.749703   0.000000
   52       10.090278   0.000000
   53       10.772737   0.000000
   54       10.786497   0.000000
   55       11.368474   0.000000
   56       11.443783   0.000000
   57       12.306668   0.000000