    2    2    1    1
  0.2621357E+02  0.2460440E-09  0.2460440E-09  0.1000000E-08  0.5000000E-15
  1.000000000000000E-004
  CAR 
 Graphene                                
      8    180     33
 
  0.0000000E+00  0.0000000E+00  0.0000000E+00  0.5555556E-02
    1      -19.550822   1.000000
    2       -9.786945   1.000000
    3       -3.469832   1.000000
    4       -0.264314   0.000000
    5       -0.263521   0.000000
    6        3.058029   0.000000
    7        3.715548   0.000000
    8        4.846385   0.000000
    9        4.847653   0.000000
   10        7.510096   0.000000
   11        8.402976   0.000000
   12       10.518294   0.000000
   13       15.753660   0.000000
   14       19.511102   0.000000
   15       20.667348   0.000000
   16       20.707487   0.000000
   17       22.064736   0.000000
   18       22.064956   0.000000
   19       24.936973   0.000000
   20       26.323227   0.000000
   21       26.323383   0.000000
   22       31.782978   0.000000
   23       32.132951   0.000000
   24       32.678914   0.000000
   25       32.679035   0.000000
   26       33.739526   0.000000
   27       33.739606   0.000000
   28       34.282802   0.000000
   29       35.032475   0.000000
   30       35.811458   0.000000
   31       35.812563   0.000000
   32       35.892234   0.000000
   33       36.809208   0.000000
 
  0.8474576E-02  0.0000000E+00  0.0000000E+00  0.5555556E-02
    1      -19.548937   1.000000
    2       -9.785133   1.000000
    3       -3.468315   1.000000
    4       -0.273348   0.000000
    5       -0.267834   0.000000
    6        3.060218   0.000000
    7        3.717843   0.000000
    8        4.849393   0.000000
    9        4.850755   0.000000
   10        7.512094   0.000000
   11        8.405826   0.000000
   12       10.520532   0.000000
   13       15.754207   0.000000
   14       19.508391   0.000000
   15       20.644165   0.000000
   16       20.708594   0.000000
   17       22.065239   0.000000
   18       22.072449   0.000000
   19       24.957383   0.000000
   20       26.319770   0.000000
   21       26.331606   0.000000
   22       31.766828   0.000000
   23       32.130291   0.000000
   24       32.623530   0.000000
   25       32.630636   0.000000
   26       33.709459   0.000000
   27       33.791141   0.000000
   28       34.298262   0.000000
   29       35.073551   0.000000
   30       35.723834   0.000000
   31       35.760908   0.000000
   32       35.815173   0.000000
   33       36.694563   0.000000
 
  0.1694915E-01  0.0000000E+00  0.0000000E+00  0.5555556E-02
    1      -19.543282   1.000000
    2       -9.779698   1.000000
    3       -3.463766   1.000000
    4       -0.302740   0.000000
    5       -0.279282   0.000000
    6        3.066778   0.000000
    7        3.724724   0.000000
    8        4.847498   0.000000
    9        4.859018   0.000000
   10        7.518075   0.000000
   11        8.414240   0.000000
   12       10.527234   0.000000
   13       15.755766   0.000000
   14       19.500156   0.000000
   15       20.577107   0.000000
   16       20.712001   0.000000
   17       22.066201   0.000000
   18       22.092603   0.000000
   19       25.016873   0.000000
   20       26.309120   0.000000
   21       26.356046   0.000000
   22       31.707272   0.000000
   23       32.120492   0.000000
   24       32.482407   0.000000
   25       32.514872   0.000000
   26       33.631424   0.000000
   27       33.918060   0.000000
   28       34.342238   0.000000
   29       35.062256   0.000000
   30       35.533358   0.000000
   31       35.634876   0.000000
   32       35.729843   0.000000
   33       36.459537   0.000000
 
  0.2542373E-01  0.0000000E+00  0.0000000E+00  0.5555556E-02
    1      -19.533857   1.000000
    2       -9.770641   1.000000
    3       -3.456198   1.000000
    4       -0.352221   0.000000
    5       -0.298512   0.000000
    6        3.077701   0.000000
    7        3.736188   0.000000
    8        4.838107   0.000000
    9        4.871031   0.000000
   10        7.528015   0.000000
   11        8.427841   0.000000
   12       10.538368   0.000000
   13       15.758206   0.000000
   14       19.486366   0.000000
   15       20.472170   0.000000
   16       20.717968   0.000000
   17       22.067729   0.000000
   18       22.122256   0.000000
   19       25.110242   0.000000
   20       26.292742   0.000000
   21       26.396185   0.000000
   22       31.574177   0.000000
   23       32.099027   0.000000
   24       32.295116   0.000000
   25       32.399665   0.000000
   26       33.529508   0.000000
   27       34.072813   0.000000
   28       34.392179   0.000000
   29       34.822116   0.000000
   30       35.271908   0.000000
   31       35.479364   0.000000
   32       35.831293   0.000000
   33       36.298235   0.000000
 
  0.3389831E-01  0.0000000E+00  0.0000000E+00  0.5555556E-02
    1      -19.520661   1.000000
    2       -9.757939   1.000000
    3       -3.445571   1.000000
    4       -0.419062   0.000000
    5       -0.324696   0.000000
    6        3.092981   0.000000
    7        3.752238   0.000000
    8        4.829762   0.000000
    9        4.888811   0.000000
   10        7.541996   0.000000
   11        8.446907   0.000000
   12       10.553978   0.000000
   13       15.761589   0.000000
   14       19.467448   0.000000
   15       20.337507   0.000000
   16       20.726964   0.000000
   17       22.070587   0.000000
   18       22.159112   0.000000
   19       25.229451   0.000000
   20       26.274588   0.000000
   21       26.451996   0.000000
   22       31.347484   0.000000
   23       32.064285   0.000000
   24       32.085841   0.000000
   25       32.334156   0.000000
   26       33.417682   0.000000
   27       34.214623   0.000000
   28       34.338414   0.000000
   29       34.570419   0.000000
   30       34.928952   0.000000
   31       35.327073   0.000000
   32       35.879915   0.000000
   33       36.094594   0.000000
 
  0.4237288E-01  0.0000000E+00  0.0000000E+00  0.5555556E-02
    1      -19.503699   1.000000
    2       -9.741650   1.000000
    3       -3.432012   1.000000
    4       -0.504366   0.000000
    5       -0.357853   0.000000
    6        3.112584   0.000000
    7        3.772859   0.000000
    8        4.816927   0.000000
    9        4.911176   0.000000
   10        7.559895   0.000000
   11        8.470153   0.000000
   12       10.573817   0.000000
   13       15.765549   0.000000
   14       19.442796   0.000000
   15       20.180565   0.000000
   16       20.739306   0.000000
   17       22.075028   0.000000
   18       22.199832   0.000000
   19       25.360927   0.000000
   20       26.261154   0.000000
   21       26.522845   0.000000
   22       31.046507   0.000000
   23       31.866361   0.000000
   24       32.016821   0.000000
   25       32.309163   0.000000
   26       33.294542   0.000000
   27       34.046947   0.000000
   28       34.301178   0.000000
   29       34.383678   0.000000
   30       34.699545   0.000000
   31       35.198772   0.000000
   32       35.819717   0.000000
   33       35.930241   0.000000
 
  0.5084746E-01  0.0000000E+00  0.0000000E+00  0.5555556E-02
    1      -19.482970   1.000000
    2       -9.721751   1.000000
    3       -3.415498   1.000000
    4       -0.606753   0.000000
    5       -0.397633   0.000000
    6        3.136488   0.000000
    7        3.798048   0.000000
    8        4.800810   0.000000
    9        4.937763   0.000000
   10        7.581732   0.000000
   11        8.497262   0.000000
   12       10.597888   0.000000
   13       15.769899   0.000000
   14       19.412799   0.000000
   15       20.008173   0.000000
   16       20.755572   0.000000
   17       22.081557   0.000000
   18       22.243118   0.000000
   19       25.484110   0.000000
   20       26.267218   0.000000
   21       26.608118   0.000000
   22       30.703309   0.000000
   23       31.642545   0.000000
   24       31.947005   0.000000
   25       32.297371   0.000000
   26       33.146128   0.000000
   27       33.733744   0.000000
   28       34.032878   0.000000
   29       34.296871   0.000000
   30       34.666773   0.000000
   31       35.089377   0.000000
   32       35.769557   0.000000
   33       35.849316   0.000000
 
  0.5932203E-01  0.0000000E+00  0.0000000E+00  0.5555556E-02
    1      -19.458462   1.000000
    2       -9.698174   1.000000
    3       -3.394868   1.000000
    4       -0.725828   0.000000
    5       -0.443311   0.000000
    6        3.164860   0.000000
    7        3.827796   0.000000
    8        4.780801   0.000000
    9        4.969799   0.000000
   10        7.608140   0.000000
   11        8.527918   0.000000
   12       10.626358   0.000000
   13       15.775482   0.000000
   14       19.378055   0.000000
   15       19.826079   0.000000
   16       20.776398   0.000000
   17       22.091157   0.000000
   18       22.287966   0.000000
   19       25.569949   0.000000
   20       26.317009   0.000000
   21       26.707774   0.000000
   22       30.339897   0.000000
   23       31.417730   0.000000
   24       31.834914   0.000000
   25       32.276444   0.000000
   26       32.952827   0.000000
   27       33.437033   0.000000
   28       33.734997   0.000000
   29       34.205537   0.000000
   30       34.639037   0.000000
   31       34.958559   0.000000
   32       35.660103   0.000000
   33       35.890777   0.000000
 
  0.6779661E-01  0.0000000E+00  0.0000000E+00  0.5555556E-02
    1      -19.430208   1.000000
    2       -9.671078   1.000000
    3       -3.372587   1.000000
    4       -0.859433   0.000000
    5       -0.495159   0.000000
    6        3.197229   0.000000
    7        3.862090   0.000000
    8        4.757577   0.000000
    9        5.003483   0.000000
   10        7.637717   0.000000
   11        8.560336   0.000000
   12       10.658562   0.000000
   13       15.779552   0.000000
   14       19.337156   0.000000
   15       19.639731   0.000000
   16       20.801817   0.000000
   17       22.103547   0.000000
   18       22.333510   0.000000
   19       25.593032   0.000000
   20       26.427512   0.000000
   21       26.819790   0.000000
   22       29.968928   0.000000
   23       31.193355   0.000000
   24       31.654572   0.000000
   25       32.227255   0.000000
   26       32.704432   0.000000
   27       33.151973   0.000000
   28       33.584121   0.000000
   29       34.061017   0.000000
   30       34.587999   0.000000
   31       34.788856   0.000000
   32       35.489883   0.000000
   33       35.955446   0.000000
 
  0.7627119E-01  0.0000000E+00  0.0000000E+00  0.5555556E-02
    1      -19.398195   1.000000
    2       -9.640394   1.000000
    3       -3.347487   1.000000
    4       -1.007041   0.000000
    5       -0.552332   0.000000
    6        3.233735   0.000000
    7        3.900913   0.000000
    8        4.730663   0.000000
    9        5.040034   0.000000
   10        7.671095   0.000000
   11        8.594147   0.000000
   12       10.694652   0.000000
   13       15.782866   0.000000
   14       19.288440   0.000000
   15       19.455650   0.000000
   16       20.832331   0.000000
   17       22.119783   0.000000
   18       22.379236   0.000000
   19       25.556627   0.000000
   20       26.590211   0.000000
   21       26.943922   0.000000
   22       29.599203   0.000000
   23       30.970770   0.000000
   24       31.396335   0.000000
   25       32.122201   0.000000
   26       32.406958   0.000000
   27       32.959203   0.000000
   28       33.535599   0.000000
   29       33.891087   0.000000
   30       34.523204   0.000000
   31       34.594780   0.000000
   32       35.318648   0.000000
   33       36.063572   0.000000
 
  0.8474576E-01  0.0000000E+00  0.0000000E+00  0.5555556E-02
    1      -19.362428   1.000000
    2       -9.606134   1.000000
    3       -3.319636   1.000000
    4       -1.167570   0.000000
    5       -0.614354   0.000000
    6        3.274281   0.000000
    7        3.944245   0.000000
    8        4.700066   0.000000
    9        5.078961   0.000000
   10        7.708201   0.000000
   11        8.628386   0.000000
   12       10.734499   0.000000
   13       15.784892   0.000000
   14       19.210743   0.000000
   15       19.298851   0.000000
   16       20.868150   0.000000
   17       22.140456   0.000000
   18       22.424533   0.000000
   19       25.477453   0.000000
   20       26.780495   0.000000
   21       27.079289   0.000000
   22       29.238488   0.000000
   23       30.750735   0.000000
   24       31.074814   0.000000
   25       31.864965   0.000000
   26       32.188046   0.000000
   27       32.856398   0.000000
   28       33.543344   0.000000
   29       33.710342   0.000000
   30       34.389894   0.000000
   31       34.457943   0.000000
   32       35.158348   0.000000
   33       36.175479   0.000000
 
  0.9322034E-01  0.0000000E+00  0.0000000E+00  0.5555556E-02
    1      -19.322915   1.000000
    2       -9.568364   1.000000
    3       -3.289589   1.000000
    4       -1.341167   0.000000
    5       -0.680842   0.000000
    6        3.318628   0.000000
    7        3.992024   0.000000
    8        4.665484   0.000000
    9        5.119619   0.000000
   10        7.748630   0.000000
   11        8.661363   0.000000
   12       10.777858   0.000000
   13       15.784405   0.000000
   14       19.057314   0.000000
   15       19.218309   0.000000
   16       20.909368   0.000000
   17       22.166073   0.000000
   18       22.468612   0.000000
   19       25.368077   0.000000
   20       26.973076   0.000000
   21       27.224954   0.000000
   22       28.897141   0.000000
   23       30.533762   0.000000
   24       30.713656   0.000000
   25       31.484835   0.000000
   26       32.062292   0.000000
   27       32.794570   0.000000
   28       33.525941   0.000000
   29       33.582625   0.000000
   30       34.181453   0.000000
   31       34.403651   0.000000
   32       35.013122   0.000000
   33       36.238598   0.000000
 
  0.1016949E+00  0.0000000E+00  0.0000000E+00  0.5555556E-02
    1      -19.279649   1.000000
    2       -9.526941   1.000000
    3       -3.256325   1.000000
    4       -1.524193   0.000000
    5       -0.751114   0.000000
    6        3.366811   0.000000
    7        4.044238   0.000000
    8        4.628683   0.000000
    9        5.161814   0.000000
   10        7.793053   0.000000
   11        8.694097   0.000000
   12       10.824986   0.000000
   13       15.782194   0.000000
   14       18.886845   0.000000
   15       19.161708   0.000000
   16       20.956104   0.000000
   17       22.197280   0.000000
   18       22.510830   0.000000
   19       25.236112   0.000000
   20       27.139384   0.000000
   21       27.379960   0.000000
   22       28.595282   0.000000
   23       30.320312   0.000000
   24       30.331642   0.000000
   25       31.085059   0.000000
   26       31.948371   0.000000
   27       32.745663   0.000000
   28       33.341929   0.000000
   29       33.635577   0.000000
   30       33.973206   0.000000
   31       34.369620   0.000000
   32       34.885924   0.000000
   33       36.139727   0.000000
 
  0.1101695E+00  0.0000000E+00  0.0000000E+00  0.5555556E-02
    1      -19.232647   1.000000
    2       -9.482105   1.000000
    3       -3.220875   1.000000
    4       -1.717031   0.000000
    5       -0.825418   0.000000
    6        3.418371   0.000000
    7        4.100730   0.000000
    8        4.587809   0.000000
    9        5.204670   0.000000
   10        7.840667   0.000000
   11        8.723106   0.000000
   12       10.875244   0.000000
   13       15.776136   0.000000
   14       18.721286   0.000000
   15       19.104827   0.000000
   16       21.008138   0.000000
   17       22.234458   0.000000
   18       22.549903   0.000000
   19       25.085026   0.000000
   20       27.227059   0.000000
   21       27.543401   0.000000
   22       28.375618   0.000000
   23       29.939073   0.000000
   24       30.110531   0.000000
   25       30.694419   0.000000
   26       31.829476   0.000000
   27       32.695004   0.000000
   28       33.160404   0.000000
   29       33.685917   0.000000
   30       33.767155   0.000000
   31       34.360208   0.000000
   32       34.779519   0.000000
   33       35.892764   0.000000
 
  0.1186441E+00  0.0000000E+00  0.0000000E+00  0.5555556E-02
    1      -19.181906   1.000000
    2       -9.433696   1.000000
    3       -3.183186   1.000000
    4       -1.920222   0.000000
    5       -0.902827   0.000000
    6        3.472989   0.000000
    7        4.161270   0.000000
    8        4.544790   0.000000
    9        5.248086   0.000000
   10        7.891415   0.000000
   11        8.747635   0.000000
   12       10.928981   0.000000
   13       15.766017   0.000000
   14       18.566442   0.000000
   15       19.049861   0.000000
   16       21.065534   0.000000
   17       22.278057   0.000000
   18       22.584596   0.000000
   19       24.917880   0.000000
   20       27.168596   0.000000
   21       27.713709   0.000000
   22       28.293547   0.000000
   23       29.542328   0.000000
   24       29.905044   0.000000
   25       30.327501   0.000000
   26       31.702851   0.000000
   27       32.636886   0.000000
   28       32.982768   0.000000
   29       33.564681   0.000000
   30       33.721485   0.000000
   31       34.368429   0.000000
   32       34.697681   0.000000
   33       35.601605   0.000000
 
  0.1271186E+00  0.0000000E+00  0.0000000E+00  0.5555556E-02
    1      -19.127435   1.000000
    2       -9.381773   1.000000
    3       -3.143425   0.999999
    4       -2.129739   0.000000
    5       -0.982050   0.000000
    6        3.530019   0.000000
    7        4.225219   0.000000
    8        4.501460   0.000000
    9        5.291747   0.000000
   10        7.945249   0.000000
   11        8.768769   0.000000
   12       10.986055   0.000000
   13       15.751234   0.000000
   14       18.424339   0.000000
   15       18.995137   0.000000
   16       21.128049   0.000000
   17       22.328504   0.000000
   18       22.613406   0.000000
   19       24.737229   0.000000
   20       26.966272   0.000000
   21       27.889829   0.000000
   22       28.329323   0.000000
   23       29.146416   0.000000
   24       29.704149   0.000000
   25       30.001916   0.000000
   26       31.568312   0.000000
   27       32.568239   0.000000
   28       32.810240   0.000000
   29       33.366783   0.000000
   30       33.736747   0.000000
   31       34.363367   0.000000
   32       34.647767   0.000000
   33       35.318610   0.000000
 
  0.1355932E+00  0.0000000E+00  0.0000000E+00  0.5555556E-02
    1      -19.069236   1.000000
    2       -9.326352   1.000000
    3       -3.101768   0.999840
    4       -2.345349   0.000000
    5       -1.063147   0.000000
    6        3.588477   0.000000
    7        4.290126   0.000000
    8        4.460275   0.000000
    9        5.335998   0.000000
   10        8.002088   0.000000
   11        8.784296   0.000000
   12       11.046536   0.000000
   13       15.731169   0.000000
   14       18.296864   0.000000
   15       18.940995   0.000000
   16       21.195349   0.000000
   17       22.386232   0.000000
   18       22.633735   0.000000
   19       24.546644   0.000000
   20       26.686671   0.000000
   21       28.070063   0.000000
   22       28.376109   0.000000
   23       28.763392   0.000000
   24       29.508386   0.000000
   25       29.747334   0.000000
   26       31.426476   0.000000
   27       32.489256   0.000000
   28       32.643525   0.000000
   29       33.174342   0.000000
   30       33.729623   0.000000
   31       34.289718   0.000000
   32       34.631570   0.000000
   33       35.076634   0.000000
 
  0.1440678E+00  0.0000000E+00  0.0000000E+00  0.5555556E-02
    1      -19.007330   1.000000
    2       -9.267509   1.000000
    3       -3.060427   0.992437
    4       -2.566269   0.000000
    5       -1.146418   0.000000
    6        3.646502   0.000000
    7        4.341511   0.000000
    8        4.438126   0.000000
    9        5.378625   0.000000
   10        8.060943   0.000000
   11        8.793481   0.000000
   12       11.110397   0.000000
   13       15.704806   0.000000
   14       18.184698   0.000000
   15       18.887154   0.000000
   16       21.266944   0.000000
   17       22.451125   0.000000
   18       22.642385   0.000000
   19       24.349432   0.000000
   20       26.373587   0.000000
   21       28.251653   0.000000
   22       28.252113   0.000000
   23       28.484101   0.000000
   24       29.318925   0.000000
   25       29.608104   0.000000
   26       31.278029   0.000000
   27       32.401516   0.000000
   28       32.483027   0.000000
   29       32.988321   0.000000
   30       33.697040   0.000000
   31       34.119293   0.000000
   32       34.596531   0.000000
   33       34.910114   0.000000
 
  0.1525424E+00  0.0000000E+00  0.0000000E+00  0.5555556E-02
    1      -18.941710   1.000000
    2       -9.205214   1.000000
    3       -3.026482   0.929114
    4       -2.783323   0.000000
    5       -1.230855   0.000000
    6        3.701434   0.000000
    7        4.339752   0.000000
    8        4.478758   0.000000
    9        5.420321   0.000000
   10        8.121269   0.000000
   11        8.796964   0.000000
   12       11.177702   0.000000
   13       15.671922   0.000000
   14       18.088756   0.000000
   15       18.834989   0.000000
   16       21.342163   0.000000
   17       22.523528   0.000000
   18       22.635279   0.000000
   19       24.151764   0.000000
   20       26.045760   0.000000
   21       27.898852   0.000000
   22       28.325999   0.000000
   23       28.429805   0.000000
   24       29.139148   0.000000
   25       29.602710   0.000000
   26       31.123931   0.000000
   27       32.308299   0.000000
   28       32.329181   0.000000
   29       32.810053   0.000000
   30       33.628429   0.000000
   31       33.880768   0.000000
   32       34.448124   0.000000
   33       34.877953   0.000000
 
  0.1610169E+00  0.0000000E+00  0.0000000E+00  0.5555556E-02
    1      -18.872391   1.000000
    2       -9.139510   1.000000
    3       -3.083481   0.998970
    4       -2.912780   0.040340
    5       -1.316294   0.000000
    6        3.748409   0.000000
    7        4.316677   0.000000
    8        4.554533   0.000000
    9        5.460764   0.000000
   10        8.182063   0.000000
   11        8.794489   0.000000
   12       11.248643   0.000000
   13       15.632537   0.000000
   14       18.009305   0.000000
   15       18.784317   0.000000
   16       21.419746   0.000000
   17       22.603535   0.000000
   18       22.606523   0.000000
   19       23.961316   0.000000
   20       25.710860   0.000000
   21       27.511959   0.000000
   22       28.125973   0.000000
   23       28.587735   0.000000
   24       28.983833   0.000000
   25       29.686384   0.000000
   26       30.965374   0.000000
   27       32.181990   0.000000
   28       32.214072   0.000000
   29       32.641386   0.000000
   30       33.488653   0.000000
   31       33.632650   0.000000
   32       34.243437   0.000000
   33       34.939876   0.000000
 
  0.1694915E+00  0.0000000E+00  0.0000000E+00  0.5555556E-02
    1      -18.799387   1.000000
    2       -9.070461   1.000000
    3       -3.297084   1.000000
    4       -2.889491   0.008076
    5       -1.402554   0.000000
    6        3.779773   0.000000
    7        4.303467   0.000000
    8        4.640443   0.000000
    9        5.499585   0.000000
   10        8.241414   0.000000
   11        8.786240   0.000000
   12       11.323370   0.000000
   13       15.586815   0.000000
   14       17.945476   0.000000
   15       18.734477   0.000000
   16       21.497342   0.000000
   17       22.549256   0.000000
   18       22.691169   0.000000
   19       23.786782   0.000000
   20       25.372684   0.000000
   21       27.124411   0.000000
   22       27.898502   0.000000
   23       28.638252   0.000000
   24       28.937719   0.000000
   25       29.800205   0.000000
   26       30.804080   0.000000
   27       32.040911   0.000000
   28       32.123549   0.000000
   29       32.485082   0.000000
   30       33.243993   0.000000
   31       33.415852   0.000000
   32       34.070641   0.000000
   33       35.042948   0.000000
 
  0.1779661E+00  0.0000000E+00  0.0000000E+00  0.5555556E-02
    1      -18.722697   1.000000
    2       -8.998037   1.000000
    3       -3.535311   1.000000
    4       -2.843183   0.000102
    5       -1.488469   0.000000
    6        3.788819   0.000000
    7        4.314391   0.000000
    8        4.732647   0.000000
    9        5.541382   0.000000
   10        8.296024   0.000000
   11        8.777004   0.000000
   12       11.402067   0.000000
   13       15.535321   0.000000
   14       17.897854   0.000000
   15       18.686886   0.000000
   16       21.570452   0.000000
   17       22.461894   0.000000
   18       22.786428   0.000000
   19       23.635694   0.000000
   20       25.034219   0.000000
   21       26.742381   0.000000
   22       27.664850   0.000000
   23       28.523509   0.000000
   24       29.057710   0.000000
   25       29.903480   0.000000
   26       30.643596   0.000000
   27       31.904684   0.000000
   28       32.041312   0.000000
   29       32.345315   0.000000
   30       32.961889   0.000000
   31       33.182896   0.000000
   32       33.951497   0.000000
   33       35.169969   0.000000
 
  0.1864407E+00  0.0000000E+00  0.0000000E+00  0.5555556E-02
    1      -18.642332   1.000000
    2       -8.922234   1.000000
    3       -3.781134   1.000000
    4       -2.792104   0.000000
    5       -1.575472   0.000000
    6        3.772445   0.000000
    7        4.352257   0.000000
    8        4.829959   0.000000
    9        5.577564   0.000000
   10        8.340294   0.000000
   11        8.771366   0.000000
   12       11.485041   0.000000
   13       15.478508   0.000000
   14       17.865168   0.000000
   15       18.640133   0.000000
   16       21.628211   0.000000
   17       22.351423   0.000000
   18       22.889198   0.000000
   19       23.509408   0.000000
   20       24.699559   0.000000
   21       26.369305   0.000000
   22       27.434741   0.000000
   23       28.367666   0.000000
   24       29.212537   0.000000
   25       29.965636   0.000000
   26       30.491986   0.000000
   27       31.770965   0.000000
   28       31.969080   0.000000
   29       32.227471   0.000000
   30       32.680963   0.000000
   31       32.935863   0.000000
   32       33.870037   0.000000
   33       35.310339   0.000000
 
  0.1949153E+00  0.0000000E+00  0.0000000E+00  0.5555556E-02
    1      -18.558316   1.000000
    2       -8.843254   1.000000
    3       -4.030500   1.000000
    4       -2.739288   0.000000
    5       -1.662234   0.000000
    6        3.734600   0.000000
    7        4.413614   0.000000
    8        4.932183   0.000000
    9        5.610012   0.000000
   10        8.364589   0.000000
   11        8.777750   0.000000
   12       11.572119   0.000000
   13       15.417234   0.000000
   14       17.844967   0.000000
   15       18.594307   0.000000
   16       21.644967   0.000000
   17       22.246567   0.000000
   18       22.999192   0.000000
   19       23.399724   0.000000
   20       24.373716   0.000000
   21       26.008324   0.000000
   22       27.210276   0.000000
   23       28.206768   0.000000
   24       29.362908   0.000000
   25       29.954808   0.000000
   26       30.363547   0.000000
   27       31.637309   0.000000
   28       31.898934   0.000000
   29       32.138040   0.000000
   30       32.413199   0.000000
   31       32.706276   0.000000
   32       33.806502   0.000000
   33       35.455137   0.000000
 
  0.2033898E+00  0.0000000E+00  0.0000000E+00  0.5555556E-02
    1      -18.470669   1.000000
    2       -8.761113   1.000000
    3       -4.283949   1.000000
    4       -2.685436   0.000000
    5       -1.749031   0.000000
    6        3.680501   0.000000
    7        4.492285   0.000000
    8        5.039045   0.000000
    9        5.639161   0.000000
   10        8.360594   0.000000
   11        8.804374   0.000000
   12       11.663548   0.000000
   13       15.352082   0.000000
   14       17.835142   0.000000
   15       18.547504   0.000000
   16       21.578747   0.000000
   17       22.195828   0.000000
   18       23.116208   0.000000
   19       23.287818   0.000000
   20       24.068797   0.000000
   21       25.663113   0.000000
   22       26.991741   0.000000
   23       28.047254   0.000000
   24       29.497930   0.000000
   25       29.856915   0.000000
   26       30.264895   0.000000
   27       31.502038   0.000000
   28       31.805372   0.000000
   29       32.082970   0.000000
   30       32.164837   0.000000
   31       32.533780   0.000000
   32       33.750999   0.000000
   33       35.595495   0.000000
 
  0.2118644E+00  0.0000000E+00  0.0000000E+00  0.5555556E-02
    1      -18.379378   1.000000
    2       -8.675748   1.000000
    3       -4.538319   1.000000
    4       -2.630940   0.000000
    5       -1.834458   0.000000
    6        3.617792   0.000000
    7        4.584082   0.000000
    8        5.150623   0.000000
    9        5.668111   0.000000
   10        8.328121   0.000000
   11        8.853646   0.000000
   12       11.759543   0.000000
   13       15.284066   0.000000
   14       17.837185   0.000000
   15       18.500830   0.000000
   16       21.422428   0.000000
   17       22.214490   0.000000
   18       23.146671   0.000000
   19       23.239910   0.000000
   20       23.806075   0.000000
   21       25.338456   0.000000
   22       26.779019   0.000000
   23       27.890974   0.000000
   24       29.611646   0.000000
   25       29.695935   0.000000
   26       30.171873   0.000000
   27       31.365020   0.000000
   28       31.659569   0.000000