    5    5    1    2
  0.6025051E+02  0.3550000E-09  0.3550000E-09  0.2390419E-08  0.5000000E-15
  1.000000000000000E-004
  CAR 
 unknown system                          
     38     80     30
 
  0.0000000E+00  0.0000000E+00  0.0000000E+00  0.1250000E-01
    1      -41.397249    -41.397249   1.000000   1.000000
    2      -22.549476    -22.549476   1.000000   1.000000
    3      -22.454946    -22.454947   1.000000   1.000000
    4      -22.436221    -22.436220   1.000000   1.000000
    5      -16.213759    -16.213797   1.000000   1.000000
    6      -15.590145    -15.590083   1.000000   1.000000
    7       -8.439066     -8.439131   1.000000   1.000000
    8       -8.212237     -8.212310   1.000000   1.000000
    9       -7.776298     -7.776369   1.000000   1.000000
   10       -7.192256     -7.192296   1.000000   1.000000
   11       -6.935732     -6.935806   1.000000   1.000000
   12       -5.739080     -5.738970   1.000000   1.000000
   13       -5.566237     -5.566215   1.000000   1.000000
   14       -5.015579     -5.015569   1.000000   1.000000
   15       -4.449940     -4.450017   1.000000   1.000000
   16       -4.032898     -4.032789   1.000000   1.000000
   17       -3.731729     -3.731780   1.000000   1.000000
   18       -3.602583     -3.602634   1.000000   1.000000
   19       -2.999576     -2.999531   1.000000   1.000000
   20       -1.567401     -1.567732   0.000000   0.000000
   21       -1.063446     -1.063375   0.000000   0.000000
   22       -0.868252     -0.868227   0.000000   0.000000
   23       -0.561874     -0.561895   0.000000   0.000000
   24        0.732804      0.732778   0.000000   0.000000
   25        1.064922      1.064907   0.000000   0.000000
   26        1.470754      1.470790   0.000000   0.000000
   27        2.321488      2.321473   0.000000   0.000000
   28        2.535602      2.535607   0.000000   0.000000
   29        2.815359      2.815361   0.000000   0.000000
   30        3.566830      3.566829   0.000000   0.000000
 
  0.2631579E-01  0.0000000E+00  0.0000000E+00  0.1250000E-01
    1      -41.397109    -41.397106   1.000000   1.000000
    2      -22.549152    -22.549240   1.000000   1.000000
    3      -22.454796    -22.456848   1.000000   1.000000
    4      -22.438147    -22.436065   1.000000   1.000000
    5      -16.208458    -16.211881   1.000000   1.000000
    6      -15.588973    -15.585541   1.000000   1.000000
    7       -8.449234     -8.439093   1.000000   1.000000
    8       -8.209285     -8.211073   1.000000   1.000000
    9       -7.781679     -7.777016   1.000000   1.000000
   10       -7.185155     -7.189784   1.000000   1.000000
   11       -6.934923     -6.936094   1.000000   1.000000
   12       -5.740749     -5.754716   1.000000   1.000000
   13       -5.566863     -5.565701   1.000000   1.000000
   14       -5.014962     -5.019092   1.000000   1.000000
   15       -4.445606     -4.446655   1.000000   1.000000
   16       -4.036269     -4.033248   1.000000   1.000000
   17       -3.763677     -3.731198   1.000000   1.000000
   18       -3.594255     -3.604427   1.000000   1.000000
   19       -3.000100     -3.016844   1.000000   1.000000
   20       -1.569127     -1.545619   0.000000   0.000000
   21       -1.059440     -1.064868   0.000000   0.000000
   22       -0.867404     -0.906700   0.000000   0.000000
   23       -0.535613     -0.526083   0.000000   0.000000
   24        0.739105      0.738911   0.000000   0.000000
   25        1.075267      1.085569   0.000000   0.000000
   26        1.474559      1.475246   0.000000   0.000000
   27        2.327535      2.328593   0.000000   0.000000
   28        2.543643      2.543575   0.000000   0.000000
   29        2.820042      2.822842   0.000000   0.000000
   30        3.573400      3.573140   0.000000   0.000000
 
  0.5263158E-01  0.0000000E+00  0.0000000E+00  0.1250000E-01
    1      -41.396699    -41.396685   1.000000   1.000000
    2      -22.548228    -22.548626   1.000000   1.000000
    3      -22.454348    -22.462397   1.000000   1.000000
    4      -22.443823    -22.435603   1.000000   1.000000
    5      -16.192652    -16.206252   1.000000   1.000000
    6      -15.585499    -15.571928   1.000000   1.000000
    7       -8.477535     -8.438976   1.000000   1.000000
    8       -8.201904     -8.207401   1.000000   1.000000
    9       -7.797511     -7.778935   1.000000   1.000000
   10       -7.164788     -7.182418   1.000000   1.000000
   11       -6.932585     -6.936828   1.000000   1.000000
   12       -5.746149     -5.802068   1.000000   1.000000
   13       -5.568649     -5.564162   1.000000   1.000000
   14       -5.013145     -5.026996   1.000000   1.000000
   15       -4.433526     -4.439291   1.000000   1.000000
   16       -4.050339     -4.034878   1.000000   1.000000
   17       -3.849240     -3.729535   1.000000   1.000000
   18       -3.569540     -3.609165   1.000000   1.000000
   19       -3.001280     -3.065509   1.000000   1.000000
   20       -1.574230     -1.482573   0.000000   0.000000
   21       -1.048500     -1.085957   0.000000   0.000000
   22       -0.864902     -0.970909   0.000000   0.000000
   23       -0.461108     -0.450022   0.000000   0.000000
   24        0.757516      0.757066   0.000000   0.000000
   25        1.106495      1.143190   0.000000   0.000000
   26        1.485819      1.489552   0.000000   0.000000
   27        2.345729      2.350101   0.000000   0.000000
   28        2.567754      2.567420   0.000000   0.000000
   29        2.834605      2.845563   0.000000   0.000000
   30        3.593017      3.592028   0.000000   0.000000
 
  0.7894737E-01  0.0000000E+00  0.0000000E+00  0.1250000E-01
    1      -41.396029    -41.395998   1.000000   1.000000
    2      -22.546893    -22.548001   1.000000   1.000000
    3      -22.453617    -22.471075   1.000000   1.000000
    4      -22.452916    -22.434849   1.000000   1.000000
    5      -16.166621    -16.197234   1.000000   1.000000
    6      -15.579822    -15.549295   1.000000   1.000000
    7       -8.519337     -8.438790   1.000000   1.000000
    8       -8.192780     -8.201409   1.000000   1.000000
    9       -7.822921     -7.782071   1.000000   1.000000
   10       -7.133826     -7.170746   1.000000   1.000000
   11       -6.928977     -6.937607   1.000000   1.000000
   12       -5.756416     -5.880634   1.000000   1.000000
   13       -5.571384     -5.561616   1.000000   1.000000
   14       -5.010234     -5.033718   1.000000   1.000000
   15       -4.418154     -4.434009   1.000000   1.000000
   16       -4.098435     -4.038622   1.000000   1.000000
   17       -3.946987     -3.727052   1.000000   1.000000
   18       -3.529218     -3.615158   1.000000   1.000000
   19       -3.002045     -3.137696   1.000000   1.000000
   20       -1.582511     -1.386454   0.000000   0.000000
   21       -1.032643     -1.164291   0.000000   0.000000
   22       -0.860880     -0.986193   0.000000   0.000000
   23       -0.349642     -0.362549   0.000000   0.000000
   24        0.786567      0.786550   0.000000   0.000000
   25        1.159064      1.225386   0.000000   0.000000
   26        1.504124      1.517349   0.000000   0.000000
   27        2.376308      2.386427   0.000000   0.000000
   28        2.607886      2.606949   0.000000   0.000000
   29        2.860462      2.884216   0.000000   0.000000
   30        3.625354      3.623118   0.000000   0.000000
 
  0.1052632E+00  0.0000000E+00  0.0000000E+00  0.1250000E-01
    1      -41.395116    -41.395061   1.000000   1.000000
    2      -22.545559    -22.548210   1.000000   1.000000
    3      -22.464750    -22.481763   1.000000   1.000000
    4      -22.452618    -22.433819   1.000000   1.000000
    5      -16.130800    -16.185296   1.000000   1.000000
    6      -15.572068    -15.517722   1.000000   1.000000
    7       -8.570156     -8.438532   1.000000   1.000000
    8       -8.183728     -8.193287   1.000000   1.000000
    9       -7.856597     -7.786334   1.000000   1.000000
   10       -7.096331     -7.155765   1.000000   1.000000
   11       -6.924445     -6.937674   1.000000   1.000000
   12       -5.773298     -5.988322   1.000000   1.000000
   13       -5.574863     -5.558086   1.000000   1.000000
   14       -5.006361     -5.034905   1.000000   1.000000
   15       -4.420479     -4.436386   1.000000   1.000000
   16       -4.202803     -4.046310   1.000000   1.000000
   17       -3.996639     -3.724276   1.000000   1.000000
   18       -3.474531     -3.620265   1.000000   1.000000
   19       -3.000852     -3.224599   1.000000   1.000000
   20       -1.593643     -1.266103   0.000000   0.000000
   21       -1.013314     -1.266008   0.000000   0.000000
   22       -0.855535     -0.969708   0.000000   0.000000
   23       -0.215318     -0.270287   0.000000   0.000000
   24        0.823852      0.826211   0.000000   0.000000
   25        1.233319      1.313286   0.000000   0.000000
   26        1.528995      1.566938   0.000000   0.000000
   27        2.419858      2.438229   0.000000   0.000000
   28        2.663921      2.661842   0.000000   0.000000
   29        2.899551      2.939536   0.000000   0.000000
   30        3.669746      3.666037   0.000000   0.000000
 
  0.1315789E+00  0.0000000E+00  0.0000000E+00  0.1250000E-01
    1      -41.393983    -41.393899   1.000000   1.000000
    2      -22.545129    -22.551040   1.000000   1.000000
    3      -22.478113    -22.492346   1.000000   1.000000
    4      -22.451380    -22.432542   1.000000   1.000000
    5      -16.085864    -16.171054   1.000000   1.000000
    6      -15.562435    -15.477442   1.000000   1.000000
    7       -8.626411     -8.438212   1.000000   1.000000
    8       -8.175480     -8.183292   1.000000   1.000000
    9       -7.896961     -7.791604   1.000000   1.000000
   10       -7.057603     -7.139087   1.000000   1.000000
   11       -6.919355     -6.935831   1.000000   1.000000
   12       -5.798913     -6.121197   1.000000   1.000000
   13       -5.579076     -5.553611   1.000000   1.000000
   14       -5.001703     -5.029189   1.000000   1.000000
   15       -4.511808     -4.449159   1.000000   1.000000
   16       -4.255566     -4.060316   1.000000   1.000000
   17       -4.017643     -3.722228   1.000000   1.000000
   18       -3.407128     -3.622792   1.000000   1.000000
   19       -2.996021     -3.318394   1.000000   1.000000
   20       -1.607218     -1.361302   0.000000   0.000000
   21       -0.991341     -1.128715   0.000000   0.000000
   22       -0.849113     -0.942733   0.000000   0.000000
   23       -0.070768     -0.173109   0.000000   0.000000
   24        0.866196      0.874276   0.000000   0.000000
   25        1.328869      1.387932   0.000000   0.000000
   26        1.560230      1.648231   0.000000   0.000000
   27        2.477456      2.506249   0.000000   0.000000
   28        2.735625      2.731665   0.000000   0.000000
   29        2.953774      3.011795   0.000000   0.000000
   30        3.725234      3.720097   0.000000   0.000000
 
  0.1578947E+00  0.0000000E+00  0.0000000E+00  0.1250000E-01
    1      -41.392663    -41.392545   1.000000   1.000000
    2      -22.547547    -22.559212   1.000000   1.000000
    3      -22.490656    -22.499681   1.000000   1.000000
    4      -22.449938    -22.431054   1.000000   1.000000
    5      -16.032679    -16.155151   1.000000   1.000000
    6      -15.551104    -15.428845   1.000000   1.000000
    7       -8.685264     -8.437836   1.000000   1.000000
    8       -8.168168     -8.171726   1.000000   1.000000
    9       -7.942314     -7.797729   1.000000   1.000000
   10       -7.024364     -7.123045   1.000000   1.000000
   11       -6.914026     -6.930419   1.000000   1.000000
   12       -5.835078     -6.274118   1.000000   1.000000
   13       -5.584298     -5.548245   1.000000   1.000000
   14       -4.996440     -5.017567   1.000000   1.000000
   15       -4.675814     -4.472030   1.000000   1.000000
   16       -4.237109     -4.082554   1.000000   1.000000
   17       -4.029794     -3.723043   1.000000   1.000000
   18       -3.328975     -3.622168   1.000000   1.000000
   19       -2.986073     -3.412024   1.000000   1.000000
   20       -1.622746     -1.439233   0.000000   0.000000
   21       -0.967325     -0.980344   0.000000   0.000000
   22       -0.841885     -0.910834   0.000000   0.000000
   23        0.075144     -0.069750   0.000000   0.000000
   24        0.909947      0.928105   0.000000   0.000000
   25        1.443984      1.446213   0.000000   0.000000
   26        1.598409      1.758919   0.000000   0.000000
   27        2.550594      2.591066   0.000000   0.000000
   28        2.822590      2.815887   0.000000   0.000000
   29        3.024443      3.100348   0.000000   0.000000
   30        3.794911      3.788542   0.000000   0.000000
 
  0.1842105E+00  0.0000000E+00  0.0000000E+00  0.1250000E-01
    1      -41.391193    -41.391037   1.000000   1.000000
    2      -22.555845    -22.574040   1.000000   1.000000
    3      -22.498901    -22.501984   1.000000   1.000000
    4      -22.448329    -22.429395   1.000000   1.000000
    5      -15.972373    -16.138246   1.000000   1.000000
    6      -15.538260    -15.372562   1.000000   1.000000
    7       -8.744432     -8.437414   1.000000   1.000000
    8       -8.161701     -8.158941   1.000000   1.000000
    9       -7.990962     -7.804536   1.000000   1.000000
   10       -7.005373     -7.110552   1.000000   1.000000
   11       -6.908717     -6.919862   1.000000   1.000000
   12       -5.881744     -6.441162   1.000000   1.000000
   13       -5.591001     -5.542056   1.000000   1.000000
   14       -4.990749     -5.002340   1.000000   1.000000
   15       -4.840303     -4.502615   1.000000   1.000000
   16       -4.208177     -4.113647   1.000000   1.000000
   17       -4.030028     -3.731616   1.000000   1.000000
   18       -3.242282     -3.618924   1.000000   1.000000
   19       -2.970068     -3.497213   1.000000   1.000000
   20       -1.639701     -1.495007   0.000000   0.000000
   21       -0.941863     -0.876635   0.000000   0.000000
   22       -0.834128     -0.825316   0.000000   0.000000
   23        0.217508      0.040750   0.000000   0.000000
   24        0.951334      0.983994   0.000000   0.000000
   25        1.574818      1.499589   0.000000   0.000000
   26        1.645935      1.886406   0.000000   0.000000
   27        2.640812      2.692864   0.000000   0.000000
   28        2.924189      2.913878   0.000000   0.000000
   29        3.111860      3.203385   0.000000   0.000000
   30        3.852820      3.864928   0.000000   0.000000
 
  0.2105263E+00  0.0000000E+00  0.0000000E+00  0.1250000E-01
    1      -41.389610    -41.389413   1.000000   1.000000
    2      -22.571101    -22.593888   1.000000   1.000000
    3      -22.501260    -22.500363   1.000000   1.000000
    4      -22.446601    -22.427612   1.000000   1.000000
    5      -15.906374    -16.120945   1.000000   1.000000
    6      -15.524014    -15.309496   1.000000   1.000000
    7       -8.802041     -8.436960   1.000000   1.000000
    8       -8.155944     -8.145316   1.000000   1.000000
    9       -8.041298     -7.811834   1.000000   1.000000
   10       -7.011712     -7.104561   1.000000   1.000000
   11       -6.903612     -6.904924   1.000000   1.000000
   12       -5.934172     -6.614216   1.000000   1.000000
   13       -5.599564     -5.535132   1.000000   1.000000
   14       -4.984809     -4.986453   1.000000   1.000000
   15       -4.979198     -4.537435   1.000000   1.000000
   16       -4.196929     -4.152847   1.000000   1.000000
   17       -4.005493     -3.757979   1.000000   1.000000
   18       -3.149429     -3.613995   1.000000   1.000000
   19       -2.947791     -3.561633   1.000000   1.000000
   20       -1.657531     -1.526906   0.000000   0.000000
   21       -0.915603     -0.842074   0.000000   0.000000
   22       -0.826105     -0.667150   0.000000   0.000000
   23        0.354416      0.158844   0.000000   0.000000
   24        0.986976      1.037337   0.000000   0.000000
   25        1.692407      1.559532   0.000000   0.000000
   26        1.730497      2.021712   0.000000   0.000000
   27        2.749192      2.811328   0.000000   0.000000
   28        3.039503      3.024812   0.000000   0.000000
   29        3.215158      3.318005   0.000000   0.000000
   30        3.754638      3.769842   0.000000   0.000000
 
  0.2368421E+00  0.0000000E+00  0.0000000E+00  0.1250000E-01
    1      -41.387958    -41.387718   1.000000   1.000000
    2      -22.590983    -22.616519   1.000000   1.000000
    3      -22.499582    -22.496553   1.000000   1.000000
    4      -22.444795    -22.425749   1.000000   1.000000
    5      -15.836505    -16.103789   1.000000   1.000000
    6      -15.508347    -15.240874   1.000000   1.000000
    7       -8.856529     -8.436482   1.000000   1.000000
    8       -8.150780     -8.131258   1.000000   1.000000
    9       -8.091837     -7.819426   1.000000   1.000000
   10       -7.054919     -7.108838   1.000000   1.000000
   11       -6.898832     -6.902768   1.000000   1.000000
   12       -5.981422     -6.768170   1.000000   1.000000
   13       -5.609924     -5.527586   1.000000   1.000000
   14       -5.084351     -4.973146   1.000000   1.000000
   15       -4.978772     -4.572579   1.000000   1.000000
   16       -4.210181     -4.198491   1.000000   1.000000
   17       -3.953684     -3.810168   1.000000   1.000000
   18       -3.052908     -3.607995   1.000000   1.000000
   19       -2.919758     -3.595665   1.000000   1.000000
   20       -1.675676     -1.535560   0.000000   0.000000
   21       -0.889222     -0.808815   0.000000   0.000000
   22       -0.818060     -0.508830   0.000000   0.000000
   23        0.485557      0.284569   0.000000   0.000000
   24        1.014625      1.083566   0.000000   0.000000
   25        1.766626      1.633858   0.000000   0.000000
   26        1.881217      2.161045   0.000000   0.000000
   27        2.875991      2.945693   0.000000   0.000000
   28        3.167097      3.147374   0.000000   0.000000
   29        3.332373      3.440584   0.000000   0.000000
   30        3.655686      3.673413   0.000000   0.000000
 
  0.2631579E+00  0.0000000E+00  0.0000000E+00  0.1250000E-01
    1      -41.386280    -41.385998   1.000000   1.000000
    2      -22.612939    -22.640311   1.000000   1.000000
    3      -22.495904    -22.491640   1.000000   1.000000
    4      -22.442964    -22.423861   1.000000   1.000000
    5      -15.765120    -16.087223   1.000000   1.000000
    6      -15.490882    -15.168212   1.000000   1.000000
    7       -8.906560     -8.435994   1.000000   1.000000
    8       -8.146130     -8.117172   1.000000   1.000000
    9       -8.141246     -7.827100   1.000000   1.000000
   10       -7.141289     -7.139938   1.000000   1.000000
   11       -6.894454     -6.989626   1.000000   1.000000
   12       -6.011142     -6.806178   1.000000   1.000000
   13       -5.621442     -5.519563   1.000000   1.000000
   14       -5.157731     -4.965648   1.000000   1.000000
   15       -4.972789     -4.604207   1.000000   1.000000
   16       -4.238670     -4.248451   1.000000   1.000000
   17       -3.885735     -3.879376   1.000000   1.000000
   18       -2.955275     -3.607002   1.000000   1.000000
   19       -2.887105     -3.601020   1.000000   1.000000
   20       -1.693582     -1.523267   0.000000   0.000000
   21       -0.863389     -0.778356   0.000000   0.000000
   22       -0.810211     -0.353056   0.000000   0.000000
   23        0.610745      0.417695   0.000000   0.000000
   24        1.034097      1.119652   0.000000   0.000000
   25        1.852128      1.726823   0.000000   0.000000
   26        2.042325      2.302889   0.000000   0.000000
   27        3.020581      3.094745   0.000000   0.000000
   28        3.304328      3.279177   0.000000   0.000000
   29        3.460912      3.567554   0.000000   0.000000
   30        3.558380      3.577976   0.000000   0.000000
 
  0.2894737E+00  0.0000000E+00  0.0000000E+00  0.1250000E-01
    1      -41.384627    -41.384302   1.000000   1.000000
    2      -22.635346    -22.664126   1.000000   1.000000
    3      -22.491355    -22.486256   1.000000   1.000000
    4      -22.441160    -22.422000   1.000000   1.000000
    5      -15.695414    -16.071622   1.000000   1.000000
    6      -15.470671    -15.093365   1.000000   1.000000
    7       -8.951026     -8.435509   1.000000   1.000000
    8       -8.188352     -8.103476   1.000000   1.000000
    9       -8.141954     -7.834648   1.000000   1.000000
   10       -7.266409     -7.251679   1.000000   1.000000
   11       -6.890520     -7.057297   1.000000   1.000000
   12       -6.018119     -6.778720   1.000000   1.000000
   13       -5.633086     -5.511235   1.000000   1.000000
   14       -5.206344     -4.966481   1.000000   1.000000
   15       -4.967006     -4.629230   1.000000   1.000000
   16       -4.274654     -4.300486   1.000000   1.000000
   17       -3.810559     -3.952632   1.000000   1.000000
   18       -2.859112     -3.607800   1.000000   1.000000
   19       -2.851404     -3.592841   1.000000   1.000000
   20       -1.710717     -1.493360   0.000000   0.000000
   21       -0.838751     -0.752053   0.000000   0.000000
   22       -0.802749     -0.202418   0.000000   0.000000
   23        0.728112      0.557854   0.000000   0.000000
   24        1.048495      1.144907   0.000000   0.000000
   25        1.953741      1.839267   0.000000   0.000000
   26        2.207134      2.445680   0.000000   0.000000
   27        3.181569      3.256359   0.000000   0.000000
   28        3.445542      3.415865   0.000000   0.000000
   29        3.464911      3.485396   0.000000   0.000000
   30        3.598988      3.697019   0.000000   0.000000
 
  0.3157895E+00  0.0000000E+00  0.0000000E+00  0.1250000E-01
    1      -41.383042    -41.382676   1.000000   1.000000
    2      -22.657137    -22.687084   1.000000   1.000000
    3      -22.486537    -22.480800   1.000000   1.000000
    4      -22.439429    -22.420214   1.000000   1.000000
    5      -15.631751    -16.057290   1.000000   1.000000
    6      -15.445800    -15.018467   1.000000   1.000000
    7       -8.989021     -8.435037   1.000000   1.000000
    8       -8.232136     -8.090603   1.000000   1.000000
    9       -8.138246     -7.841865   1.000000   1.000000
   10       -7.417127     -7.412172   1.000000   1.000000
   11       -6.887048     -7.078105   1.000000   1.000000
   12       -6.005993     -6.741577   1.000000   1.000000
   13       -5.643726     -5.502818   1.000000   1.000000
   14       -5.237674     -4.976395   1.000000   1.000000
   15       -4.961547     -4.646218   1.000000   1.000000
   16       -4.313920     -4.352457   1.000000   1.000000
   17       -3.733349     -4.023062   1.000000   1.000000
   18       -2.814448     -3.604293   1.000000   1.000000
   19       -2.766978     -3.583227   1.000000   1.000000
   20       -1.726580     -1.449677   0.000000   0.000000
   21       -0.815906     -0.731085   0.000000   0.000000
   22       -0.795831     -0.059507   0.000000   0.000000
   23        0.830219      0.704578   0.000000   0.000000
   24        1.067308      1.160407   0.000000   0.000000
   25        2.072049      1.969485   0.000000   0.000000
   26        2.371979      2.586027   0.000000   0.000000
   27        3.356786      3.397401   0.000000   0.000000
   28        3.377247      3.425053   0.000000   0.000000
   29        3.579398      3.551757   0.000000   0.000000
   30        3.748164      3.830798   0.000000   0.000000
 
  0.3421053E+00  0.0000000E+00  0.0000000E+00  0.1250000E-01
    1      -41.381567    -41.381162   1.000000   1.000000
    2      -22.677501    -22.708443   1.000000   1.000000
    3      -22.481812    -22.475554   1.000000   1.000000
    4      -22.437816    -22.418550   1.000000   1.000000
    5      -15.579372    -16.044461   1.000000   1.000000
    6      -15.413606    -14.945890   1.000000   1.000000
    7       -9.019870     -8.434594   1.000000   1.000000
    8       -8.271727     -8.079018   1.000000   1.000000
    9       -8.135033     -7.848560   1.000000   1.000000
   10       -7.578180     -7.572795   1.000000   1.000000
   11       -6.884048     -7.089099   1.000000   1.000000
   12       -5.982268     -6.702650   1.000000   1.000000
   13       -5.652341     -5.494564   1.000000   1.000000
   14       -5.257559     -4.993825   1.000000   1.000000
   15       -4.956538     -4.655781   1.000000   1.000000
   16       -4.353772     -4.402476   1.000000   1.000000
   17       -3.657786     -4.087454   1.000000   1.000000
   18       -2.778081     -3.599159   1.000000   1.000000
   19       -2.681368     -3.572226   1.000000   1.000000
   20       -1.740731     -1.396243   0.000000   0.000000
   21       -0.795372     -0.716399   0.000000   0.000000
   22       -0.789595      0.073001   0.000000   0.000000
   23        0.898414      0.857203   0.000000   0.000000
   24        1.111213      1.167955   0.000000   0.000000
   25        2.206685      2.114064   0.000000   0.000000
   26        2.532467      2.716758   0.000000   0.000000
   27        3.297160      3.315630   0.000000   0.000000
   28        3.542525      3.581114   0.000000   0.000000
   29        3.691596      3.691678   0.000000   0.000000
   30        3.910911      3.967533   0.000000   0.000000
 
  0.3684211E+00  0.0000000E+00  0.0000000E+00  0.1250000E-01
    1      -41.380240    -41.379802   1.000000   1.000000
    2      -22.695799    -22.727585   1.000000   1.000000
    3      -22.477442    -22.470752   1.000000   1.000000
    4      -22.436368    -22.417056   1.000000   1.000000
    5      -15.541548    -16.033331   1.000000   1.000000
    6      -15.373555    -14.878209   1.000000   1.000000
    7       -9.043221     -8.434193   1.000000   1.000000
    8       -8.306397     -8.069314   1.000000   1.000000
    9       -8.132382     -7.854555   1.000000   1.000000
   10       -7.736332     -7.720017   1.000000   1.000000
   11       -6.881522     -7.097237   1.000000   1.000000
   12       -5.954127     -6.664968   1.000000   1.000000
   13       -5.658144     -5.486768   1.000000   1.000000
   14       -5.269981     -5.015624   1.000000   1.000000
   15       -4.952092     -4.659726   1.000000   1.000000
   16       -4.392083     -4.448994   1.000000   1.000000
   17       -3.587039     -4.144062   1.000000   1.000000
   18       -2.744066     -3.593679   1.000000   1.000000
   19       -2.604633     -3.560291   1.000000   1.000000
   20       -1.752820     -1.337175   0.000000   0.000000
   21       -0.784149     -0.708579   0.000000   0.000000
   22       -0.777569      0.192322   0.000000   0.000000
   23        0.922534      1.014599   0.000000   0.000000
   24        1.191638      1.169496   0.000000   0.000000
   25        2.356719      2.267323   0.000000   0.000000
   26        2.682617      2.824890   0.000000   0.000000
   27        3.226267      3.241765   0.000000   0.000000
   28        3.727313      3.691647   0.000000   0.000000
   29        3.779258      3.843058   0.000000   0.000000
   30        4.070255      3.988335   0.000000   0.000000
 
  0.3947368E+00  0.0000000E+00  0.0000000E+00  0.1250000E-01
    1      -41.379101    -41.378633   1.000000   1.000000
    2      -22.711490    -22.743975   1.000000   1.000000
    3      -22.473620    -22.466575   1.000000   1.000000
    4      -22.435126    -22.415775   1.000000   1.000000
    5      -15.516643    -16.024048   1.000000   1.000000
    6      -15.329997    -14.818066   1.000000   1.000000
    7       -9.059182     -8.433849   1.000000   1.000000
    8       -8.335550     -8.062558   1.000000   1.000000
    9       -8.130463     -7.859692   1.000000   1.000000
   10       -7.880941     -7.846692   1.000000   1.000000
   11       -6.879466     -7.103766   1.000000   1.000000
   12       -5.927034     -6.630703   1.000000   1.000000
   13       -5.660752     -5.479750   1.000000   1.000000
   14       -5.277537     -5.038356   1.000000   1.000000
   15       -4.948312     -4.659766   1.000000   1.000000
   16       -4.426935     -4.490794   1.000000   1.000000
   17       -3.524057     -4.191752   1.000000   1.000000
   18       -2.713983     -3.588560   1.000000   1.000000
   19       -2.538899     -3.548262   1.000000   1.000000
   20       -1.762613     -1.276770   0.000000   0.000000
   21       -0.779585     -0.707619   0.000000   0.000000
   22       -0.762801      0.295573   0.000000   0.000000
   23        0.921666      1.166926   0.000000   0.000000
   24        1.289282      1.174603   0.000000   0.000000
   25        2.520682      2.417277   0.000000   0.000000
   26        2.814620      2.894379   0.000000   0.000000
   27        3.166016      3.177572   0.000000   0.000000
   28        3.818140      3.748296   0.000000   0.000000
   29        3.905874      3.827324   0.000000   0.000000
   30        4.101037      4.081372   0.000000   0.000000
 
  0.4210526E+00  0.0000000E+00  0.0000000E+00  0.1250000E-01
    1      -41.378183    -41.377691   1.000000   1.000000
    2      -22.724148    -22.757184   1.000000   1.000000
    3      -22.470492    -22.463168   1.000000   1.000000
    4      -22.434122    -22.414739   1.000000   1.000000
    5      -15.500676    -16.016718   1.000000   1.000000
    6      -15.289486    -14.768014   1.000000   1.000000
    7       -9.068503     -8.433567   1.000000   1.000000
    8       -8.358702     -8.061851   1.000000   1.000000
    9       -8.129878     -7.945367   1.000000   1.000000
   10       -8.002961     -7.863836   1.000000   1.000000
   11       -6.877871     -7.108904   1.000000   1.000000
   12       -5.904542     -6.601722   1.000000   1.000000
   13       -5.660423     -5.473839   1.000000   1.000000
   14       -5.281914     -5.059065   1.000000   1.000000
   15       -4.945275     -4.656943   1.000000   1.000000