    2    2    1    1
  0.3538312E+02  0.4745822E-09  0.4745822E-09  0.4745822E-09  0.5000000E-15
  1.000000000000000E-004
  CAR 
 unknown system                          
     30     80     40
 
  0.5000000E+00  0.5000000E+00  0.5000000E+00  0.1250000E-01
    1      -18.011339   1.000000
    2      -18.011339   1.000000
    3      -17.992720   1.000000
    4      -17.992720   1.000000
    5      -17.966029   1.000000
    6      -17.966029   1.000000
    7      -17.963384   1.000000
    8      -17.963383   1.000000
    9      -15.101317   1.000000
   10      -15.101317   1.000000
   11      -15.070756   1.000000
   12      -15.070756   1.000000
   13      -15.061031   1.000000
   14      -15.061031   1.000000
   15      -14.958373   1.000000
   16      -14.958373   1.000000
   17      -14.940208   1.000000
   18      -14.940208   1.000000
   19      -14.935911   1.000000
   20      -14.935911   1.000000
   21       -5.495703   1.000000
   22       -5.495703   1.000000
   23       -3.550311   1.000000
   24       -3.550311   1.000000
   25        4.597590   1.000000
   26        4.597590   1.000000
   27        4.975020   1.000000
   28        4.975020   1.000000
   29        6.324508   0.268116
   30        6.324508   0.268115
   31        6.634426  -0.013078
   32        6.634426  -0.013078
   33        7.294263  -0.000000
   34        7.294263  -0.000000
   35        7.521585  -0.000000
   36        7.521585  -0.000000
   37       13.272125   0.000000
   38       13.272125   0.000000
   39       15.188236   0.000000
   40       15.250394   0.000000
 
  0.4736842E+00  0.4736842E+00  0.4736842E+00  0.1250000E-01
    1      -18.011701   1.000000
    2      -18.011701   1.000000
    3      -17.993024   1.000000
    4      -17.993024   1.000000
    5      -17.965966   1.000000
    6      -17.965966   1.000000
    7      -17.963669   1.000000
    8      -17.963669   1.000000
    9      -15.101662   1.000000
   10      -15.101662   1.000000
   11      -15.071197   1.000000
   12      -15.071197   1.000000
   13      -15.061601   1.000000
   14      -15.061601   1.000000
   15      -14.957770   1.000000
   16      -14.957770   1.000000
   17      -14.939966   1.000000
   18      -14.939966   1.000000
   19      -14.935494   1.000000
   20      -14.935494   1.000000
   21       -5.512134   1.000000
   22       -5.512134   1.000000
   23       -3.527062   1.000000
   24       -3.527062   1.000000
   25        4.575082   1.000000
   26        4.575082   1.000000
   27        4.998019   1.000000
   28        4.998019   1.000000
   29        6.314846   0.304514
   30        6.314846   0.304514
   31        6.631761  -0.013566
   32        6.631761  -0.013566
   33        7.311032  -0.000000
   34        7.311032  -0.000000
   35        7.540274  -0.000000
   36        7.540274  -0.000000
   37       13.210639   0.000000
   38       13.210639   0.000000
   39       15.095756   0.000000
   40       15.112408   0.000000
 
  0.4473684E+00  0.4473684E+00  0.4473684E+00  0.1250000E-01
    1      -18.012008   1.000000
    2      -18.012008   1.000000
    3      -17.993701   1.000000
    4      -17.993701   1.000000
    5      -17.965440   1.000000
    6      -17.965440   1.000000
    7      -17.963475   1.000000
    8      -17.963474   1.000000
    9      -15.102519   1.000000
   10      -15.102519   1.000000
   11      -15.072295   1.000000
   12      -15.072295   1.000000
   13      -15.063220   1.000000
   14      -15.063220   1.000000
   15      -14.955956   1.000000
   16      -14.955956   1.000000
   17      -14.939024   1.000000
   18      -14.939024   1.000000
   19      -14.934184   1.000000
   20      -14.934184   1.000000
   21       -5.558943   1.000000
   22       -5.558943   1.000000
   23       -3.459874   1.000000
   24       -3.459874   1.000000
   25        4.519474   1.000000
   26        4.519474   1.000000
   27        5.054868   1.000000
   28        5.054868   1.000000
   29        6.287693   0.413699
   30        6.287693   0.413699
   31        6.625589  -0.014739
   32        6.625589  -0.014739
   33        7.359573  -0.000000
   34        7.359573  -0.000000
   35        7.594435  -0.000000
   36        7.594435  -0.000000
   37       13.050655   0.000000
   38       13.050655   0.000000
   39       14.830299   0.000000
   40       14.896558   0.000000
 
  0.4210526E+00  0.4210526E+00  0.4210526E+00  0.1250000E-01
    1      -18.012527   1.000000
    2      -18.012526   1.000000
    3      -17.994773   1.000000
    4      -17.994773   1.000000
    5      -17.964624   1.000000
    6      -17.964624   1.000000
    7      -17.963144   1.000000
    8      -17.963144   1.000000
    9      -15.103900   1.000000
   10      -15.103900   1.000000
   11      -15.074064   1.000000
   12      -15.074064   1.000000
   13      -15.065766   1.000000
   14      -15.065766   1.000000
   15      -14.953107   1.000000
   16      -14.953107   1.000000
   17      -14.937449   1.000000
   18      -14.937449   1.000000
   19      -14.932145   1.000000
   20      -14.932145   1.000000
   21       -5.629920   1.000000
   22       -5.629920   1.000000
   23       -3.355251   1.000000
   24       -3.355251   1.000000
   25        4.448209   1.000000
   26        4.448209   1.000000
   27        5.127331   1.000000
   28        5.127331   1.000000
   29        6.247510   0.582781
   30        6.247510   0.582781
   31        6.620158  -0.015817
   32        6.620158  -0.015817
   33        7.435707  -0.000000
   34        7.435707  -0.000000
   35        7.679363  -0.000000
   36        7.679363  -0.000000
   37       12.834759   0.000000
   38       12.834759   0.000000
   39       14.548094   0.000000
   40       14.594226   0.000000
 
  0.3947368E+00  0.3947368E+00  0.3947368E+00  0.1250000E-01
    1      -18.013188   1.000000
    2      -18.013188   1.000000
    3      -17.996017   1.000000
    4      -17.996017   1.000000
    5      -17.962396   1.000000
    6      -17.962396   1.000000
    7      -17.961788   1.000000
    8      -17.961788   1.000000
    9      -15.105701   1.000000
   10      -15.105701   1.000000
   11      -15.076180   1.000000
   12      -15.076180   1.000000
   13      -15.069019   1.000000
   14      -15.069019   1.000000
   15      -14.949216   1.000000
   16      -14.949216   1.000000
   17      -14.935183   1.000000
   18      -14.935183   1.000000
   19      -14.929365   1.000000
   20      -14.929365   1.000000
   21       -5.717634   1.000000
   22       -5.717634   1.000000
   23       -3.221136   1.000000
   24       -3.221136   1.000000
   25        4.371026   1.000000
   26        4.371026   1.000000
   27        5.204524   1.000000
   28        5.204524   1.000000
   29        6.199451   0.769177
   30        6.199451   0.769176
   31        6.620131  -0.015822
   32        6.620131  -0.015822
   33        7.534877  -0.000000
   34        7.534877  -0.000000
   35        7.789564  -0.000000
   36        7.789564  -0.000000
   37       12.596546   0.000000
   38       12.596546   0.000000
   39       14.263774   0.000000
   40       14.291575   0.000000
 
  0.3684211E+00  0.3684211E+00  0.3684211E+00  0.1250000E-01
    1      -18.014050   1.000000
    2      -18.014050   1.000000
    3      -17.997643   1.000000
    4      -17.997643   1.000000
    5      -17.961347   1.000000
    6      -17.961347   1.000000
    7      -17.959918   1.000000
    8      -17.959918   1.000000
    9      -15.107882   1.000000
   10      -15.107882   1.000000
   11      -15.078944   1.000000
   12      -15.078944   1.000000
   13      -15.072804   1.000000
   14      -15.072803   1.000000
   15      -14.944712   1.000000
   16      -14.944712   1.000000
   17      -14.932451   1.000000
   18      -14.932451   1.000000
   19      -14.926256   1.000000
   20      -14.926256   1.000000
   21       -5.815324   1.000000
   22       -5.815324   1.000000
   23       -3.064993   1.000000
   24       -3.064993   1.000000
   25        4.292116   1.000000
   26        4.292116   1.000000
   27        5.280380   1.000000
   28        5.280380   1.000000
   29        6.147775   0.918671
   30        6.147775   0.918671
   31        6.629368  -0.014014
   32        6.629368  -0.014014
   33        7.653184  -0.000000
   34        7.653184  -0.000000
   35        7.920078  -0.000000
   36        7.920078  -0.000000
   37       12.356495   0.000000
   38       12.356495   0.000000
   39       13.997006   0.000000
   40       14.023861   0.000000
 
  0.3421053E+00  0.3421053E+00  0.3421053E+00  0.1250000E-01
    1      -18.015344   1.000000
    2      -18.015344   1.000000
    3      -17.999667   1.000000
    4      -17.999667   1.000000
    5      -17.960911   1.000000
    6      -17.960911   1.000000
    7      -17.959167   1.000000
    8      -17.959167   1.000000
    9      -15.110399   1.000000
   10      -15.110399   1.000000
   11      -15.082216   1.000000
   12      -15.082216   1.000000
   13      -15.076990   1.000000
   14      -15.076990   1.000000
   15      -14.940158   1.000000
   16      -14.940158   1.000000
   17      -14.929409   1.000000
   18      -14.929409   1.000000
   19      -14.922862   1.000000
   20      -14.922862   1.000000
   21       -5.917602   1.000000
   22       -5.917602   1.000000
   23       -2.893180   1.000000
   24       -2.893180   1.000000
   25        4.213579   1.000000
   26        4.213579   1.000000
   27        5.350935   1.000000
   28        5.350935   1.000000
   29        6.095669   1.003341
   30        6.095669   1.003341
   31        6.650576  -0.010357
   32        6.650576  -0.010357
   33        7.787528  -0.000000
   34        7.787528  -0.000000
   35        8.066857  -0.000000
   36        8.066857  -0.000000
   37       12.126961   0.000000
   38       12.126961   0.000000
   39       13.743168   0.000000
   40       13.752957   0.000000
 
  0.3157895E+00  0.3157895E+00  0.3157895E+00  0.1250000E-01
    1      -18.016405   1.000000
    2      -18.016405   1.000000
    3      -18.001409   1.000000
    4      -18.001409   1.000000
    5      -17.959954   1.000000
    6      -17.959954   1.000000
    7      -17.957849   1.000000
    8      -17.957849   1.000000
    9      -15.112998   1.000000
   10      -15.112998   1.000000
   11      -15.085571   1.000000
   12      -15.085571   1.000000
   13      -15.081242   1.000000
   14      -15.081242   1.000000
   15      -14.935201   1.000000
   16      -14.935200   1.000000
   17      -14.926054   1.000000
   18      -14.926054   1.000000
   19      -14.919215   1.000000
   20      -14.919215   1.000000
   21       -6.020403   1.000000
   22       -6.020403   1.000000
   23       -2.710940   1.000000
   24       -2.710940   1.000000
   25        4.136582   1.000000
   26        4.136582   1.000000
   27        5.413425   1.000000
   28        5.413425   1.000000
   29        6.045355   1.033060
   30        6.045355   1.033060
   31        6.685403  -0.005890
   32        6.685403  -0.005890
   33        7.935437  -0.000000
   34        7.935437  -0.000000
   35        8.226704  -0.000000
   36        8.226704  -0.000000
   37       11.916434   0.000000
   38       11.916434   0.000000
   39       13.507547   0.000000
   40       13.508130   0.000000
 
  0.2894737E+00  0.2894737E+00  0.2894737E+00  0.1250000E-01
    1      -18.017526   1.000000
    2      -18.017526   1.000000
    3      -18.003206   1.000000
    4      -18.003206   1.000000
    5      -17.959406   1.000000
    6      -17.959406   1.000000
    7      -17.956916   1.000000
    8      -17.956916   1.000000
    9      -15.115661   1.000000
   10      -15.115661   1.000000
   11      -15.089195   1.000000
   12      -15.089195   1.000000
   13      -15.085532   1.000000
   14      -15.085532   1.000000
   15      -14.930293   1.000000
   16      -14.930292   1.000000
   17      -14.922536   1.000000
   18      -14.922536   1.000000
   19      -14.915434   1.000000
   20      -14.915434   1.000000
   21       -6.120774   1.000000
   22       -6.120774   1.000000
   23       -2.522669   1.000000
   24       -2.522669   1.000000
   25        4.061654   1.000000
   26        4.061654   1.000000
   27        5.465883   1.000000
   28        5.465883   1.000000
   29        5.998215   1.033581
   30        5.998215   1.033581
   31        6.734213  -0.002342
   32        6.734213  -0.002342
   33        8.094610  -0.000000
   34        8.094610  -0.000000
   35        8.396877  -0.000000
   36        8.396877  -0.000000
   37       11.730521   0.000000
   38       11.730521   0.000000
   39       13.277487   0.000000
   40       13.288684   0.000000
 
  0.2631579E+00  0.2631579E+00  0.2631579E+00  0.1250000E-01
    1      -18.018615   1.000000
    2      -18.018615   1.000000
    3      -18.004366   1.000000
    4      -18.004366   1.000000
    5      -17.958841   1.000000
    6      -17.958841   1.000000
    7      -17.956041   1.000000
    8      -17.956041   1.000000
    9      -15.118264   1.000000
   10      -15.118264   1.000000
   11      -15.092820   1.000000
   12      -15.092820   1.000000
   13      -15.089700   1.000000
   14      -15.089700   1.000000
   15      -14.925424   1.000000
   16      -14.925424   1.000000
   17      -14.918951   1.000000
   18      -14.918951   1.000000
   19      -14.911559   1.000000
   20      -14.911559   1.000000
   21       -6.216591   1.000000
   22       -6.216591   1.000000
   23       -2.332235   1.000000
   24       -2.332235   1.000000
   25        3.989220   1.000000
   26        3.989220   1.000000
   27        5.507371   1.000001
   28        5.507371   1.000001
   29        5.955086   1.024896
   30        5.955086   1.024896
   31        6.796125  -0.000592
   32        6.796125  -0.000592
   33        8.262878  -0.000000
   34        8.262878  -0.000000
   35        8.574855  -0.000000
   36        8.574855  -0.000000
   37       11.574130  -0.000000
   38       11.574130  -0.000000
   39       13.066171   0.000000
   40       13.081235   0.000000
 
  0.2368421E+00  0.2368421E+00  0.2368421E+00  0.1250000E-01
    1      -18.019759   1.000000
    2      -18.019759   1.000000
    3      -18.006426   1.000000
    4      -18.006426   1.000000
    5      -17.958269   1.000000
    6      -17.958269   1.000000
    7      -17.955971   1.000000
    8      -17.955971   1.000000
    9      -15.120910   1.000000
   10      -15.120910   1.000000
   11      -15.096526   1.000000
   12      -15.096526   1.000000
   13      -15.093749   1.000000
   14      -15.093749   1.000000
   15      -14.920717   1.000000
   16      -14.920716   1.000000
   17      -14.915564   1.000000
   18      -14.915564   1.000000
   19      -14.907886   1.000000
   20      -14.907886   1.000000
   21       -6.306277   1.000000
   22       -6.306277   1.000000
   23       -2.143303   1.000000
   24       -2.143303   1.000000
   25        3.919605   1.000000
   26        3.919605   1.000000
   27        5.537863   1.000002
   28        5.537863   1.000002
   29        5.916417   1.016268
   30        5.916417   1.016268
   31        6.869136  -0.000088
   32        6.869136  -0.000088
   33        8.437512  -0.000000
   34        8.437512  -0.000000
   35        8.758050  -0.000000
   36        8.758050  -0.000000
   37       11.451145  -0.000000
   38       11.451145  -0.000000
   39       12.873221   0.000000
   40       12.901849   0.000000
 
  0.2105263E+00  0.2105263E+00  0.2105263E+00  0.1250000E-01
    1      -18.020837   1.000000
    2      -18.020837   1.000000
    3      -18.008280   1.000000
    4      -18.008280   1.000000
    5      -17.957669   1.000000
    6      -17.957669   1.000000
    7      -17.955168   1.000000
    8      -17.955168   1.000000
    9      -15.123392   1.000000
   10      -15.123392   1.000000
   11      -15.099927   1.000000
   12      -15.099927   1.000000
   13      -15.097519   1.000000
   14      -15.097518   1.000000
   15      -14.916228   1.000000
   16      -14.916227   1.000000
   17      -14.912337   1.000000
   18      -14.912337   1.000000
   19      -14.904229   1.000000
   20      -14.904229   1.000000
   21       -6.388637   1.000000
   22       -6.388637   1.000000
   23       -1.959406   1.000000
   24       -1.959406   1.000000
   25        3.853217   1.000000
   26        3.853217   1.000000
   27        5.558137   1.000003
   28        5.558137   1.000003
   29        5.882399   1.010143
   30        5.882399   1.010143
   31        6.950268  -0.000008
   32        6.950268  -0.000008
   33        8.615676  -0.000000
   34        8.615676  -0.000000
   35        8.943596  -0.000000
   36        8.943596  -0.000000
   37       11.365004  -0.000000
   38       11.365004  -0.000000
   39       12.697631   0.000000
   40       12.699946   0.000000
 
  0.1842105E+00  0.1842105E+00  0.1842105E+00  0.1250000E-01
    1      -18.021547   1.000000
    2      -18.021547   1.000000
    3      -18.009681   1.000000
    4      -18.009681   1.000000
    5      -17.956501   1.000000
    6      -17.956501   1.000000
    7      -17.954007   1.000000
    8      -17.954007   1.000000
    9      -15.125621   1.000000
   10      -15.125621   1.000000
   11      -15.103013   1.000000
   12      -15.103013   1.000000
   13      -15.100875   1.000000
   14      -15.100875   1.000000
   15      -14.911926   1.000000
   16      -14.911926   1.000000
   17      -14.909316   1.000000
   18      -14.909316   1.000000
   19      -14.900639   1.000000
   20      -14.900639   1.000000
   21       -6.462810   1.000000
   22       -6.462810   1.000000
   23       -1.784104   1.000000
   24       -1.784104   1.000000
   25        3.790575   1.000000
   26        3.790575   1.000000
   27        5.569580   1.000005
   28        5.569580   1.000005
   29        5.853062   1.006322
   30        5.853062   1.006322
   31        7.036096  -0.000000
   32        7.036096  -0.000000
   33        8.793855  -0.000000
   34        8.793855  -0.000000
   35        9.128206  -0.000000
   36        9.128206  -0.000000
   37       11.318528  -0.000000
   38       11.318528  -0.000000
   39       12.545394   0.000000
   40       12.550470   0.000000
 
  0.1578947E+00  0.1578947E+00  0.1578947E+00  0.1250000E-01
    1      -18.021888   1.000000
    2      -18.021888   1.000000
    3      -18.010309   1.000000
    4      -18.010309   1.000000
    5      -17.955341   1.000000
    6      -17.955341   1.000000
    7      -17.952957   1.000000
    8      -17.952957   1.000000
    9      -15.127609   1.000000
   10      -15.127609   1.000000
   11      -15.105747   1.000000
   12      -15.105747   1.000000
   13      -15.103682   1.000000
   14      -15.103682   1.000000
   15      -14.908117   1.000000
   16      -14.908117   1.000000
   17      -14.906472   1.000000
   18      -14.906472   1.000000
   19      -14.897322   1.000000
   20      -14.897322   1.000000
   21       -6.528148   1.000000
   22       -6.528148   1.000000
   23       -1.621074   1.000000
   24       -1.621074   1.000000
   25        3.732422   1.000000
   26        3.732422   1.000000
   27        5.573878   1.000005
   28        5.573878   1.000005
   29        5.828227   1.004054
   30        5.828227   1.004054
   31        7.122417  -0.000000
   32        7.122417  -0.000000
   33        8.967620  -0.000000
   34        8.967620  -0.000000
   35        9.307656  -0.000000
   36        9.307656  -0.000000
   37       11.313977  -0.000000
   38       11.313977  -0.000000
   39       12.414858   0.000000
   40       12.416992   0.000000
 
  0.1315789E+00  0.1315789E+00  0.1315789E+00  0.1250000E-01
    1      -18.023299   1.000000
    2      -18.023299   1.000000
    3      -18.012285   1.000000
    4      -18.012285   1.000000
    5      -17.955897   1.000000
    6      -17.955897   1.000000
    7      -17.953411   1.000000
    8      -17.953411   1.000000
    9      -15.129469   1.000000
   10      -15.129469   1.000000
   11      -15.108430   1.000000
   12      -15.108430   1.000000
   13      -15.106569   1.000000
   14      -15.106569   1.000000
   15      -14.905189   1.000000
   16      -14.905189   1.000000
   17      -14.904239   1.000000
   18      -14.904239   1.000000
   19      -14.894712   1.000000
   20      -14.894712   1.000000
   21       -6.584139   1.000000
   22       -6.584139   1.000000
   23       -1.474137   1.000000
   24       -1.474137   1.000000
   25        3.679609   1.000000
   26        3.679609   1.000000
   27        5.572832   1.000005
   28        5.572832   1.000005
   29        5.807606   1.002723
   30        5.807606   1.002723
   31        7.205099  -0.000000
   32        7.205099  -0.000000
   33        9.131689  -0.000000
   34        9.131689  -0.000000
   35        9.476721  -0.000000
   36        9.476721  -0.000000
   37       11.351762  -0.000000
   38       11.351762  -0.000000
   39       12.312358   0.000000
   40       12.347878   0.000000
 
  0.1052632E+00  0.1052632E+00  0.1052632E+00  0.1250000E-01
    1      -18.024044   1.000000
    2      -18.024044   1.000000
    3      -18.013417   1.000000
    4      -18.013417   1.000000
    5      -17.955546   1.000000
    6      -17.955546   1.000000
    7      -17.952907   1.000000
    8      -17.952907   1.000000
    9      -15.130944   1.000000
   10      -15.130944   1.000000
   11      -15.110543   1.000000
   12      -15.110543   1.000000
   13      -15.108828   1.000000
   14      -15.108828   1.000000
   15      -14.902468   1.000000
   16      -14.902468   1.000000
   17      -14.902314   1.000000
   18      -14.902314   1.000000
   19      -14.892316   1.000000
   20      -14.892316   1.000000
   21       -6.630383   1.000000
   22       -6.630383   1.000000
   23       -1.347062   1.000000
   24       -1.347062   1.000000
   25        3.633525   1.000000
   26        3.633525   1.000000
   27        5.568571   1.000005
   28        5.568571   1.000005
   29        5.791242   1.001949
   30        5.791242   1.001949
   31        7.280304  -0.000000
   32        7.280304  -0.000000
   33        9.280184  -0.000000
   34        9.280184  -0.000000
   35        9.629666  -0.000000
   36        9.629666  -0.000000
   37       11.431717  -0.000000
   38       11.431717  -0.000000
   39       12.223138   0.000000
   40       12.225046   0.000000
 
  0.7894737E-01  0.7894737E-01  0.7894737E-01  0.1250000E-01
    1      -18.024613   1.000000
    2      -18.024613   1.000000
    3      -18.014257   1.000000
    4      -18.014257   1.000000
    5      -17.955229   1.000000
    6      -17.955229   1.000000
    7      -17.952446   1.000000
    8      -17.952446   1.000000
    9      -15.132090   1.000000
   10      -15.132090   1.000000
   11      -15.112208   1.000000
   12      -15.112208   1.000000
   13      -15.110591   1.000000
   14      -15.110591   1.000000
   15      -14.900776   1.000000
   16      -14.900776   1.000000
   17      -14.900290   1.000000
   18      -14.900290   1.000000
   19      -14.890377   1.000000
   20      -14.890377   1.000000
   21       -6.666634   1.000000
   22       -6.666634   1.000000
   23       -1.243509   1.000000
   24       -1.243509   1.000000
   25        3.595526   1.000000
   26        3.595526   1.000000
   27        5.562930   1.000004
   28        5.562930   1.000004
   29        5.778800   1.001495
   30        5.778800   1.001495
   31        7.343979  -0.000000
   32        7.343979  -0.000000
   33        9.406418  -0.000000
   34        9.406418  -0.000000
   35        9.759509  -0.000000
   36        9.759510  -0.000000
   37       11.550593  -0.000000
   38       11.550597  -0.000000
   39       12.166167   0.000000
   40       12.206670   0.000000
 
  0.5263158E-01  0.5263158E-01  0.5263158E-01  0.1250000E-01
    1      -18.024685   1.000000
    2      -18.024685   1.000000
    3      -18.013621   1.000000
    4      -18.013621   1.000000
    5      -17.954829   1.000000
    6      -17.954829   1.000000
    7      -17.951225   1.000000
    8      -17.951225   1.000000
    9      -15.132786   1.000000
   10      -15.132786   1.000000
   11      -15.113251   1.000000
   12      -15.113251   1.000000
   13      -15.111622   1.000000
   14      -15.111622   1.000000
   15      -14.899466   1.000000
   16      -14.899466   1.000000
   17      -14.898604   1.000000
   18      -14.898603   1.000000
   19      -14.888864   1.000000
   20      -14.888864   1.000000
   21       -6.692662   1.000000
   22       -6.692662   1.000000
   23       -1.166786   1.000000
   24       -1.166786   1.000000
   25        3.567119   1.000000
   26        3.567119   1.000000
   27        5.557602   1.000003
   28        5.557602   1.000003
   29        5.770087   1.001235
   30        5.770087   1.001235
   31        7.392571  -0.000000
   32        7.392571  -0.000000
   33        9.503554  -0.000000
   34        9.503554  -0.000000
   35        9.859147  -0.000000
   36        9.859147  -0.000000
   37       11.699311  -0.000000
   38       11.699328  -0.000000
   39       12.124751   0.000000
   40       12.128548   0.000000
 
  0.2631579E-01  0.2631579E-01  0.2631579E-01  0.1250000E-01
    1      -18.024914   1.000000
    2      -18.024914   1.000000
    3      -18.014016   1.000000
    4      -18.014016   1.000000
    5      -17.954597   1.000000
    6      -17.954596   1.000000
    7      -17.950966   1.000000
    8      -17.950966   1.000000
    9      -15.133267   1.000000
   10      -15.133267   1.000000
   11      -15.113965   1.000000
   12      -15.113965   1.000000
   13      -15.112399   1.000000
   14      -15.112399   1.000000
   15      -14.898788   1.000000
   16      -14.898788   1.000000
   17      -14.897600   1.000000
   18      -14.897600   1.000000
   19      -14.887975   1.000000
   20      -14.887975   1.000000
   21       -6.708325   1.000000
   22       -6.708325   1.000000
   23       -1.119591   1.000000
   24       -1.119591   1.000000
   25        3.549429   1.000000
   26        3.549429   1.000000
   27        5.553809   1.000003
   28        5.553809   1.000003
   29        5.764924   1.001101
   30        5.764924   1.001101
   31        7.422996  -0.000000
   32        7.422996  -0.000000
   33        9.565017  -0.000000
   34        9.565017  -0.000000
   35        9.921953  -0.000000
   36        9.921953  -0.000000
   37       11.849517   0.000000
   38       11.849806   0.000000
   39       12.100822   0.000000
   40       12.112815   0.000000
 
  0.2775558E-16  0.2775558E-16  0.2775558E-16  0.1250000E-01
    1      -18.026396   1.000000
    2      -18.026396   1.000000
    3      -18.015418   1.000000
    4      -18.015418   1.000000
    5      -17.955562   1.000000
    6      -17.955562   1.000000
    7      -17.952335   1.000000
    8      -17.952335   1.000000
    9      -15.133731   1.000000
   10      -15.133731   1.000000
   11      -15.114483   1.000000
   12      -15.114483   1.000000
   13      -15.112975   1.000000
   14      -15.112975   1.000000
   15      -14.898851   1.000000
   16      -14.898851   1.000000
   17      -14.897617   1.000000
   18      -14.897616   1.000000
   19      -14.887904   1.000000
   20      -14.887904   1.000000
   21       -6.713548   1.000000
   22       -6.713548   1.000000
   23       -1.103674   1.000000
   24       -1.103674   1.000000
   25        3.543326   1.000000
   26        3.543326   1.000000
   27        5.552367   1.000003
   28        5.552367   1.000003
   29        5.763100   1.001057
   30        5.763100   1.001057
   31        7.433016  -0.000000
   32        7.433016  -0.000000
   33        9.585776  -0.000000
   34        9.585776  -0.000000
   35        9.943034  -0.000000
   36        9.943034  -0.000000
   37       11.920888   0.000000
   38       11.921000   0.000000
   39       12.089434   0.000000
   40       12.090754   0.000000
 
  0.0000000E+00  0.0000000E+00  0.0000000E+00  0.1250000E-01
    1      -18.026396   1.000000
    2      -18.026396   1.000000
    3      -18.015418   1.000000
    4      -18.015418   1.000000
    5      -17.955562   1.000000
    6      -17.955562   1.000000
    7      -17.952335   1.000000
    8      -17.952335   1.000000
    9      -15.133731   1.000000
   10      -15.133731   1.000000
   11      -15.114483   1.000000
   12      -15.114483   1.000000
   13      -15.112975   1.000000
   14      -15.112975   1.000000
   15      -14.898851   1.000000
   16      -14.898851   1.000000
   17      -14.897617   1.000000
   18      -14.897616   1.000000
   19      -14.887904   1.000000
   20      -14.887904   1.000000
   21       -6.713548   1.000000
   22       -6.713548   1.000000
   23       -1.103674   1.000000
   24       -1.103674   1.000000
   25        3.543326   1.000000
   26        3.543326   1.000000
   27        5.552367   1.000003
   28        5.552367   1.000003
   29        5.763100   1.001057
   30        5.763100   1.001057
   31        7.433016  -0.000000
   32        7.433016  -0.000000
   33        9.585776  -0.000000
   34        9.585776  -0.000000
   35        9.943034  -0.000000
   36        9.943034  -0.000000
   37       11.920877   0.000000
   38       11.920903   0.000000
   39       12.089308   0.000000
   40       12.090480   0.000000
 
  0.2631579E-01  0.2631579E-01  0.0000000E+00  0.1250000E-01
    1      -18.025184   1.000000
    2      -18.025184   1.000000
    3      -18.014527   1.000000
    4      -18.014527   1.000000
    5      -17.955541   1.000000
    6      -17.955541   1.000000
    7      -17.951815   1.000000
    8      -17.951815   1.000000
    9      -15.133244   1.000000
   10      -15.133244   1.000000
   11      -15.116144   1.000000
   12      -15.116144   1.000000
   13      -15.110229   1.000000
   14      -15.110229   1.000000
   15      -14.901579   1.000000
   16      -14.901579   1.000000
   17      -14.895454   1.000000
   18      -14.895454   1.000000
   19      -14.888390   1.000000
   20      -14.888390   1.000000
   21       -6.705342   1.000000