    6    6    1    1
  0.3538312E+02  0.4546000E-09  0.4546000E-09  0.1186200E-08  0.5000000E-15
  1.000000000000000E-004
  CAR 
 unknown system                          
     90    140    108
 
  0.0000000E+00  0.0000000E+00  0.0000000E+00  0.7142857E-02
    1      -18.027358   1.000000
    2      -18.027358   1.000000
    3      -18.016656   1.000000
    4      -18.016656   1.000000
    5      -18.016585   1.000000
    6      -18.016585   1.000000
    7      -18.015585   1.000000
    8      -18.015585   1.000000
    9      -18.000365   1.000000
   10      -18.000365   1.000000
   11      -18.000278   1.000000
   12      -18.000278   1.000000
   13      -17.961620   1.000000
   14      -17.961620   1.000000
   15      -17.961551   1.000000
   16      -17.961551   1.000000
   17      -17.959010   1.000000
   18      -17.959010   1.000000
   19      -17.958926   1.000000
   20      -17.958926   1.000000
   21      -17.956415   1.000000
   22      -17.956415   1.000000
   23      -17.952460   1.000000
   24      -17.952460   1.000000
   25      -15.134960   1.000000
   26      -15.134960   1.000000
   27      -15.114901   1.000000
   28      -15.114901   1.000000
   29      -15.112980   1.000000
   30      -15.112980   1.000000
   31      -15.112507   1.000000
   32      -15.112507   1.000000
   33      -15.112438   1.000000
   34      -15.112438   1.000000
   35      -15.083810   1.000000
   36      -15.083810   1.000000
   37      -15.083741   1.000000
   38      -15.083741   1.000000
   39      -15.078405   1.000000
   40      -15.078405   1.000000
   41      -15.078320   1.000000
   42      -15.078320   1.000000
   43      -14.938675   1.000000
   44      -14.938675   1.000000
   45      -14.938595   1.000000
   46      -14.938595   1.000000
   47      -14.929158   1.000000
   48      -14.929158   1.000000
   49      -14.929147   1.000000
   50      -14.929147   1.000000
   51      -14.922385   1.000000
   52      -14.922385   1.000000
   53      -14.922373   1.000000
   54      -14.922373   1.000000
   55      -14.899271   1.000000
   56      -14.899271   1.000000
   57      -14.897715   1.000000
   58      -14.897715   1.000000
   59      -14.889104   1.000000
   60      -14.889104   1.000000
   61       -6.713966   1.000000
   62       -6.713966   1.000000
   63       -5.952449   1.000000
   64       -5.952449   1.000000
   65       -5.952273   1.000000
   66       -5.952273   1.000000
   67       -2.833744   1.000000
   68       -2.833744   1.000000
   69       -2.833680   1.000000
   70       -2.833680   1.000000
   71       -1.104015   1.000000
   72       -1.104015   1.000000
   73        3.543108   1.000000
   74        3.543108   1.000000
   75        4.187260   1.000000
   76        4.187260   1.000000
   77        4.187313   1.000000
   78        4.187313   1.000000
   79        5.372135   1.000000
   80        5.372135   1.000000
   81        5.372223   1.000000
   82        5.372223   1.000000
   83        5.552282   1.000000
   84        5.552282   1.000000
   85        5.762869   1.000314
   86        5.762870   1.000314
   87        6.078116   1.035331
   88        6.078116   1.035331
   89        6.078241   1.035325
   90        6.078241   1.035325
   91        6.660209  -0.017945
   92        6.660209  -0.017945
   93        6.660247  -0.017937
   94        6.660247  -0.017937
   95        7.432700  -0.000000
   96        7.432700  -0.000000
   97        7.834929  -0.000000
   98        7.834929  -0.000000
   99        7.835038  -0.000000
  100        7.835038  -0.000000
  101        8.118299  -0.000000
  102        8.118299  -0.000000
  103        8.118305  -0.000000
  104        8.118305  -0.000000
  105        9.585240  -0.000000
  106        9.585240  -0.000000
  107        9.942734  -0.000000
  108        9.942735  -0.000000
 
  0.2631579E-01  0.0000000E+00  0.0000000E+00  0.7142857E-02
    1      -18.025969   1.000000
    2      -18.025969   1.000000
    3      -18.016848   1.000000
    4      -18.016848   1.000000
    5      -18.016596   1.000000
    6      -18.016595   1.000000
    7      -18.014700   1.000000
    8      -18.014700   1.000000
    9      -18.000239   1.000000
   10      -18.000239   1.000000
   11      -18.000077   1.000000
   12      -18.000077   1.000000
   13      -17.961570   1.000000
   14      -17.961570   1.000000
   15      -17.961477   1.000000
   16      -17.961477   1.000000
   17      -17.958284   1.000000
   18      -17.958284   1.000000
   19      -17.958172   1.000000
   20      -17.958172   1.000000
   21      -17.956460   1.000000
   22      -17.956460   1.000000
   23      -17.952370   1.000000
   24      -17.952370   1.000000
   25      -15.134489   1.000000
   26      -15.134489   1.000000
   27      -15.116567   1.000000
   28      -15.116567   1.000000
   29      -15.112645   1.000000
   30      -15.112645   1.000000
   31      -15.112517   1.000000
   32      -15.112517   1.000000
   33      -15.110521   1.000000
   34      -15.110521   1.000000
   35      -15.084658   1.000000
   36      -15.084658   1.000000
   37      -15.084455   1.000000
   38      -15.084454   1.000000
   39      -15.077124   1.000000
   40      -15.077124   1.000000
   41      -15.076890   1.000000
   42      -15.076890   1.000000
   43      -14.940049   1.000000
   44      -14.940049   1.000000
   45      -14.939977   1.000000
   46      -14.939977   1.000000
   47      -14.928576   1.000000
   48      -14.928576   1.000000
   49      -14.928275   1.000000
   50      -14.928275   1.000000
   51      -14.922137   1.000000
   52      -14.922137   1.000000
   53      -14.921848   1.000000
   54      -14.921848   1.000000
   55      -14.901769   1.000000
   56      -14.901769   1.000000
   57      -14.895612   1.000000
   58      -14.895612   1.000000
   59      -14.889494   1.000000
   60      -14.889494   1.000000
   61       -6.708081   1.000000
   62       -6.708081   1.000000
   63       -5.947098   1.000000
   64       -5.947098   1.000000
   65       -5.946917   1.000000
   66       -5.946917   1.000000
   67       -2.835064   1.000000
   68       -2.835064   1.000000
   69       -2.834719   1.000000
   70       -2.834718   1.000000
   71       -1.118050   1.000000
   72       -1.118050   1.000000
   73        3.546361   1.000000
   74        3.546361   1.000000
   75        4.141466   1.000000
   76        4.141466   1.000000
   77        4.147397   1.000000
   78        4.147398   1.000000
   79        5.333548   1.000000
   80        5.333549   1.000000
   81        5.354744   1.000000
   82        5.354744   1.000000
   83        5.552816   1.000000
   84        5.552816   1.000000
   85        5.757547   1.000274
   86        5.757548   1.000274
   87        6.078671   1.035304
   88        6.078671   1.035304
   89        6.084561   1.034848
   90        6.084561   1.034848
   91        6.680123  -0.013918
   92        6.680123  -0.013918
   93        6.685705  -0.012891
   94        6.685705  -0.012891
   95        7.425592  -0.000000
   96        7.425592  -0.000000
   97        7.713698  -0.000000
   98        7.713698  -0.000000
   99        7.762564  -0.000000
  100        7.762564  -0.000000
  101        8.263521  -0.000000
  102        8.263521  -0.000000
  103        8.296487  -0.000000
  104        8.296488  -0.000000
  105        9.570808  -0.000000
  106        9.570808  -0.000000
  107        9.910240  -0.000000
  108        9.910241  -0.000000
 
  0.5263158E-01  0.0000000E+00  0.0000000E+00  0.7142857E-02
    1      -18.025876   1.000000
    2      -18.025876   1.000000
    3      -18.017122   1.000000
    4      -18.017122   1.000000
    5      -18.016741   1.000000
    6      -18.016741   1.000000
    7      -18.014495   1.000000
    8      -18.014495   1.000000
    9      -18.000048   1.000000
   10      -18.000048   1.000000
   11      -17.999963   1.000000
   12      -17.999963   1.000000
   13      -17.962670   1.000000
   14      -17.962670   1.000000
   15      -17.962400   1.000000
   16      -17.962400   1.000000
   17      -17.957850   1.000000
   18      -17.957850   1.000000
   19      -17.957458   1.000000
   20      -17.957458   1.000000
   21      -17.956532   1.000000
   22      -17.956532   1.000000
   23      -17.952203   1.000000
   24      -17.952203   1.000000
   25      -15.133785   1.000000
   26      -15.133785   1.000000
   27      -15.118458   1.000000
   28      -15.118457   1.000000
   29      -15.113182   1.000000
   30      -15.113182   1.000000
   31      -15.112663   1.000000
   32      -15.112663   1.000000
   33      -15.106996   1.000000
   34      -15.106996   1.000000
   35      -15.086569   1.000000
   36      -15.086569   1.000000
   37      -15.085451   1.000000
   38      -15.085451   1.000000
   39      -15.074701   1.000000
   40      -15.074701   1.000000
   41      -15.073853   1.000000
   42      -15.073853   1.000000
   43      -14.943427   1.000000
   44      -14.943427   1.000000
   45      -14.943362   1.000000
   46      -14.943362   1.000000
   47      -14.928522   1.000000
   48      -14.928522   1.000000
   49      -14.926651   1.000000
   50      -14.926651   1.000000
   51      -14.921731   1.000000
   52      -14.921731   1.000000
   53      -14.919669   1.000000
   54      -14.919669   1.000000
   55      -14.905697   1.000000
   56      -14.905697   1.000000
   57      -14.893740   1.000000
   58      -14.893740   1.000000
   59      -14.890403   1.000000
   60      -14.890403   1.000000
   61       -6.690400   1.000000
   62       -6.690400   1.000000
   63       -5.931150   1.000000
   64       -5.931150   1.000000
   65       -5.930793   1.000000
   66       -5.930793   1.000000
   67       -2.839961   1.000000
   68       -2.839961   1.000000
   69       -2.837282   1.000000
   70       -2.837281   1.000000
   71       -1.159703   1.000000
   72       -1.159703   1.000000
   73        3.555655   1.000000
   74        3.555655   1.000000
   75        4.008455   1.000000
   76        4.008455   1.000000
   77        4.045711   1.000000
   78        4.045711   1.000000
   79        5.207843   1.000000
   80        5.207844   1.000000
   81        5.331116   1.000000
   82        5.331117   1.000000
   83        5.553249   1.000000
   84        5.553249   1.000000
   85        5.743154   1.000188
   86        5.743154   1.000188
   87        6.048709   1.033616
   88        6.048709   1.033616
   89        6.060024   1.034910
   90        6.060024   1.034910
   91        6.771676  -0.003025
   92        6.771676  -0.003025
   93        6.773206  -0.002935
   94        6.773207  -0.002935
   95        7.402688  -0.000000
   96        7.402688  -0.000000
   97        7.529845  -0.000000
   98        7.529845  -0.000000
   99        7.755792  -0.000000
  100        7.755793  -0.000000
  101        8.503044  -0.000000
  102        8.503045  -0.000000
  103        8.624768  -0.000000
  104        8.624769  -0.000000
  105        9.516235  -0.000000
  106        9.516235  -0.000000
  107        9.832011  -0.000000
  108        9.832011  -0.000000
 
  0.7894737E-01  0.0000000E+00  0.0000000E+00  0.7142857E-02
    1      -18.025182   1.000000
    2      -18.025182   1.000000
    3      -18.017552   1.000000
    4      -18.017552   1.000000
    5      -18.016735   1.000000
    6      -18.016735   1.000000
    7      -18.013848   1.000000
    8      -18.013848   1.000000
    9      -17.999852   1.000000
   10      -17.999852   1.000000
   11      -17.999632   1.000000
   12      -17.999632   1.000000
   13      -17.963473   1.000000
   14      -17.963473   1.000000
   15      -17.962731   1.000000
   16      -17.962731   1.000000
   17      -17.956816   1.000000
   18      -17.956816   1.000000
   19      -17.956341   1.000000
   20      -17.956341   1.000000
   21      -17.956241   1.000000
   22      -17.956241   1.000000
   23      -17.951589   1.000000
   24      -17.951588   1.000000
   25      -15.132591   1.000000
   26      -15.132591   1.000000
   27      -15.119638   1.000000
   28      -15.119638   1.000000
   29      -15.114191   1.000000
   30      -15.114191   1.000000
   31      -15.112661   1.000000
   32      -15.112661   1.000000
   33      -15.102822   1.000000
   34      -15.102822   1.000000
   35      -15.088426   1.000000
   36      -15.088426   1.000000
   37      -15.085740   1.000000
   38      -15.085740   1.000000
   39      -15.071911   1.000000
   40      -15.071911   1.000000
   41      -15.070079   1.000000
   42      -15.070079   1.000000
   43      -14.947392   1.000000
   44      -14.947392   1.000000
   45      -14.947328   1.000000
   46      -14.947328   1.000000
   47      -14.929413   1.000000
   48      -14.929413   1.000000
   49      -14.925239   1.000000
   50      -14.925239   1.000000
   51      -14.921120   1.000000
   52      -14.921120   1.000000
   53      -14.916291   1.000000
   54      -14.916291   1.000000
   55      -14.910161   1.000000
   56      -14.910161   1.000000
   57      -14.893603   1.000000
   58      -14.893603   1.000000
   59      -14.890673   1.000000
   60      -14.890673   1.000000
   61       -6.660952   1.000000
   62       -6.660952   1.000000
   63       -5.904885   1.000000
   64       -5.904885   1.000000
   65       -5.903817   1.000000
   66       -5.903817   1.000000
   67       -2.849870   1.000000
   68       -2.849870   1.000000
   69       -2.840824   1.000000
   70       -2.840824   1.000000
   71       -1.227661   1.000000
   72       -1.227661   1.000000
   73        3.569689   1.000000
   74        3.569689   1.000000
   75        3.815763   1.000000
   76        3.815764   1.000000
   77        3.905835   1.000000
   78        3.905835   1.000000
   79        5.019501   1.000000
   80        5.019501   1.000000
   81        5.300454   1.000000
   82        5.300455   1.000000
   83        5.549222   1.000000
   84        5.549222   1.000000
   85        5.725328   1.000116
   86        5.725328   1.000116
   87        5.902307   1.006215
   88        5.902307   1.006215
   89        6.032267   1.030792
   90        6.032268   1.030792
   91        6.891587  -0.000189
   92        6.891587  -0.000189
   93        6.983001  -0.000013
   94        6.983001  -0.000013
   95        7.362747  -0.000000
   96        7.362747  -0.000000
   97        7.376762  -0.000000
   98        7.376762  -0.000000
   99        7.865292  -0.000000
  100        7.865292  -0.000000
  101        8.762804  -0.000000
  102        8.762804  -0.000000
  103        8.992738  -0.000000
  104        8.992738  -0.000000
  105        9.399841  -0.000000
  106        9.399841  -0.000000
  107        9.752739  -0.000000
  108        9.752739  -0.000000
 
  0.1052632E+00  0.0000000E+00  0.0000000E+00  0.7142857E-02
    1      -18.024803   1.000000
    2      -18.024803   1.000000
    3      -18.018275   1.000000
    4      -18.018275   1.000000
    5      -18.016719   1.000000
    6      -18.016718   1.000000
    7      -18.013189   1.000000
    8      -18.013189   1.000000
    9      -17.999825   1.000000
   10      -17.999825   1.000000
   11      -17.999271   1.000000
   12      -17.999271   1.000000
   13      -17.964368   1.000000
   14      -17.964368   1.000000
   15      -17.962936   1.000000
   16      -17.962936   1.000000
   17      -17.956469   1.000000
   18      -17.956469   1.000000
   19      -17.956130   1.000000
   20      -17.956130   1.000000
   21      -17.955069   1.000000
   22      -17.955069   1.000000
   23      -17.951679   1.000000
   24      -17.951679   1.000000
   25      -15.131222   1.000000
   26      -15.131222   1.000000
   27      -15.120051   1.000000
   28      -15.120051   1.000000
   29      -15.115679   1.000000
   30      -15.115679   1.000000
   31      -15.112446   1.000000
   32      -15.112446   1.000000
   33      -15.098273   1.000000
   34      -15.098273   1.000000
   35      -15.090111   1.000000
   36      -15.090111   1.000000
   37      -15.085267   1.000000
   38      -15.085267   1.000000
   39      -15.069046   1.000000
   40      -15.069046   1.000000
   41      -15.065955   1.000000
   42      -15.065955   1.000000
   43      -14.951723   1.000000
   44      -14.951723   1.000000
   45      -14.951474   1.000000
   46      -14.951474   1.000000
   47      -14.930903   1.000000
   48      -14.930903   1.000000
   49      -14.924697   1.000000
   50      -14.924697   1.000000
   51      -14.920412   1.000000
   52      -14.920412   1.000000
   53      -14.915334   1.000000
   54      -14.915334   1.000000
   55      -14.912513   1.000000
   56      -14.912513   1.000000
   57      -14.895779   1.000000
   58      -14.895779   1.000000
   59      -14.890090   1.000000
   60      -14.890090   1.000000
   61       -6.619846   1.000000
   62       -6.619846   1.000000
   63       -5.868598   1.000000
   64       -5.868598   1.000000
   65       -5.866050   1.000000
   66       -5.866050   1.000000
   67       -2.866537   1.000000
   68       -2.866537   1.000000
   69       -2.845082   1.000000
   70       -2.845082   1.000000
   71       -1.319946   1.000000
   72       -1.319946   1.000000
   73        3.586470   1.000000
   74        3.586470   1.000000
   75        3.596505   1.000000
   76        3.596505   1.000000
   77        3.742780   1.000000
   78        3.742780   1.000000
   79        4.795993   1.000000
   80        4.795994   1.000000
   81        5.240739   1.000000
   82        5.240739   1.000000
   83        5.532499   1.000000
   84        5.532499   1.000000
   85        5.689230   1.000042
   86        5.689230   1.000042
   87        5.713262   1.000083
   88        5.713262   1.000083
   89        6.017566   1.027683
   90        6.017566   1.027683
   91        6.968357  -0.000021
   92        6.968357  -0.000021
   93        7.265854  -0.000000
   94        7.265854  -0.000000
   95        7.304159  -0.000000
   96        7.304159  -0.000000
   97        7.320749  -0.000000
   98        7.320749  -0.000000
   99        8.057540  -0.000000
  100        8.057540  -0.000000
  101        9.030694  -0.000000
  102        9.030695  -0.000000
  103        9.226395  -0.000000
  104        9.226395  -0.000000
  105        9.366984  -0.000000
  106        9.366985  -0.000000
  107        9.690370  -0.000000
  108        9.690370  -0.000000
 
  0.1315789E+00  0.0000000E+00  0.0000000E+00  0.7142857E-02
    1      -18.024250   1.000000
    2      -18.024250   1.000000
    3      -18.019104   1.000000
    4      -18.019104   1.000000
    5      -18.016546   1.000000
    6      -18.016546   1.000000
    7      -18.012704   1.000000
    8      -18.012704   1.000000
    9      -17.999894   1.000000
   10      -17.999894   1.000000
   11      -17.998856   1.000000
   12      -17.998856   1.000000
   13      -17.965517   1.000000
   14      -17.965517   1.000000
   15      -17.962887   1.000000
   16      -17.962887   1.000000
   17      -17.957187   1.000000
   18      -17.957187   1.000000
   19      -17.955487   1.000000
   20      -17.955487   1.000000
   21      -17.954073   1.000000
   22      -17.954073   1.000000
   23      -17.951897   1.000000
   24      -17.951897   1.000000
   25      -15.129841   1.000000
   26      -15.129841   1.000000
   27      -15.119486   1.000000
   28      -15.119486   1.000000
   29      -15.117479   1.000000
   30      -15.117479   1.000000
   31      -15.111927   1.000000
   32      -15.111927   1.000000
   33      -15.093349   1.000000
   34      -15.093349   1.000000
   35      -15.091503   1.000000
   36      -15.091503   1.000000
   37      -15.084200   1.000000
   38      -15.084200   1.000000
   39      -15.066190   1.000000
   40      -15.066190   1.000000
   41      -15.061615   1.000000
   42      -15.061615   1.000000
   43      -14.956330   1.000000
   44      -14.956330   1.000000
   45      -14.955614   1.000000
   46      -14.955614   1.000000
   47      -14.932635   1.000000
   48      -14.932635   1.000000
   49      -14.924961   1.000000
   50      -14.924961   1.000000
   51      -14.921157   1.000000
   52      -14.921157   1.000000
   53      -14.919707   1.000000
   54      -14.919707   1.000000
   55      -14.908677   1.000000
   56      -14.908677   1.000000
   57      -14.898996   1.000000
   58      -14.898996   1.000000
   59      -14.889707   1.000000
   60      -14.889707   1.000000
   61       -6.567193   1.000000
   62       -6.567193   1.000000
   63       -5.822686   1.000000
   64       -5.822686   1.000000
   65       -5.817598   1.000000
   66       -5.817598   1.000000
   67       -2.891897   1.000000
   68       -2.891897   1.000000
   69       -2.850062   1.000000
   70       -2.850062   1.000000
   71       -1.434084   1.000000
   72       -1.434084   1.000000
   73        3.374723   1.000000
   74        3.374723   1.000000
   75        3.564960   1.000000
   76        3.564960   1.000000
   77        3.603877   1.000000
   78        3.603878   1.000000
   79        4.553980   1.000000
   80        4.553980   1.000000
   81        5.147018   1.000000
   82        5.147018   1.000000
   83        5.460181   1.000000
   84        5.460181   1.000000
   85        5.496690   1.000000
   86        5.496690   1.000000
   87        5.713133   1.000083
   88        5.713133   1.000083
   89        6.010291   1.026037
   90        6.010291   1.026037
   91        6.945781  -0.000041
   92        6.945781  -0.000041
   93        7.227206  -0.000000
   94        7.227206  -0.000000
   95        7.412837  -0.000000
   96        7.412837  -0.000000
   97        7.570409  -0.000000
   98        7.570410  -0.000000
   99        8.309563  -0.000000
  100        8.309563  -0.000000
  101        9.027320  -0.000000
  102        9.027320  -0.000000
  103        9.298995  -0.000000
  104        9.298995  -0.000000
  105        9.633554  -0.000000
  106        9.633561  -0.000000
  107        9.725291  -0.000000
  108        9.725292  -0.000000
 
  0.1578947E+00  0.0000000E+00  0.0000000E+00  0.7142857E-02
    1      -18.023565   1.000000
    2      -18.023565   1.000000
    3      -18.019622   1.000000
    4      -18.019622   1.000000
    5      -18.016387   1.000000
    6      -18.016387   1.000000
    7      -18.011828   1.000000
    8      -18.011828   1.000000
    9      -17.999989   1.000000
   10      -17.999989   1.000000
   11      -17.998095   1.000000
   12      -17.998095   1.000000
   13      -17.965676   1.000000
   14      -17.965676   1.000000
   15      -17.962970   1.000000
   16      -17.962970   1.000000
   17      -17.957779   1.000000
   18      -17.957779   1.000000
   19      -17.955374   1.000000
   20      -17.955374   1.000000
   21      -17.952620   1.000000
   22      -17.952620   1.000000
   23      -17.952337   1.000000
   24      -17.952337   1.000000
   25      -15.128649   1.000000
   26      -15.128649   1.000000
   27      -15.119348   1.000000
   28      -15.119348   1.000000
   29      -15.117688   1.000000
   30      -15.117688   1.000000
   31      -15.111112   1.000000
   32      -15.111112   1.000000
   33      -15.092582   1.000000
   34      -15.092582   1.000000
   35      -15.088025   1.000000
   36      -15.088025   1.000000
   37      -15.082615   1.000000
   38      -15.082615   1.000000
   39      -15.063263   1.000000
   40      -15.063263   1.000000
   41      -15.057275   1.000000
   42      -15.057275   1.000000
   43      -14.960776   1.000000
   44      -14.960776   1.000000
   45      -14.959713   1.000000
   46      -14.959713   1.000000
   47      -14.934427   1.000000
   48      -14.934427   1.000000
   49      -14.927495   1.000000
   50      -14.927495   1.000000
   51      -14.925866   1.000000
   52      -14.925866   1.000000
   53      -14.919354   1.000000
   54      -14.919354   1.000000
   55      -14.904804   1.000000
   56      -14.904804   1.000000
   57      -14.902788   1.000000
   58      -14.902788   1.000000
   59      -14.889803   1.000000
   60      -14.889803   1.000000
   61       -6.503101   1.000000
   62       -6.503101   1.000000
   63       -5.767666   1.000000
   64       -5.767666   1.000000
   65       -5.758617   1.000000
   66       -5.758616   1.000000
   67       -2.927988   1.000000
   68       -2.927988   1.000000
   69       -2.855971   1.000000
   70       -2.855971   1.000000
   71       -1.567302   1.000000
   72       -1.567302   1.000000
   73        3.165582   1.000000
   74        3.165582   1.000000
   75        3.376869   1.000000
   76        3.376869   1.000000
   77        3.620012   1.000000
   78        3.620012   1.000000
   79        4.305358   1.000000
   80        4.305358   1.000000
   81        5.029929   1.000000
   82        5.029929   1.000000
   83        5.238549   1.000000
   84        5.238549   1.000000
   85        5.443851   1.000000
   86        5.443851   1.000000
   87        5.719564   1.000099
   88        5.719564   1.000099
   89        5.986753   1.020621
   90        5.986753   1.020621
   91        6.910576  -0.000113
   92        6.910576  -0.000113
   93        7.136873  -0.000000
   94        7.136873  -0.000000
   95        7.567053  -0.000000
   96        7.567053  -0.000000
   97        7.864506  -0.000000
   98        7.864506  -0.000000
   99        8.612307  -0.000000
  100        8.612307  -0.000000
  101        8.827478  -0.000000
  102        8.827478  -0.000000
  103        9.557117  -0.000000
  104        9.557118  -0.000000
  105        9.569979  -0.000000
  106        9.569979  -0.000000
  107       10.048459  -0.000000
  108       10.048460  -0.000000
 
  0.1842105E+00  0.0000000E+00  0.0000000E+00  0.7142857E-02
    1      -18.022795   1.000000
    2      -18.022795   1.000000
    3      -18.020574   1.000000
    4      -18.020574   1.000000
    5      -18.016005   1.000000
    6      -18.016005   1.000000
    7      -18.010361   1.000000
    8      -18.010361   1.000000
    9      -18.000414   1.000000
   10      -18.000414   1.000000
   11      -17.997839   1.000000
   12      -17.997839   1.000000
   13      -17.965879   1.000000
   14      -17.965879   1.000000
   15      -17.962506   1.000000
   16      -17.962506   1.000000
   17      -17.958693   1.000000
   18      -17.958693   1.000000
   19      -17.955098   1.000000
   20      -17.955098   1.000000
   21      -17.952316   1.000000
   22      -17.952316   1.000000
   23      -17.951251   1.000000
   24      -17.951251   1.000000
   25      -15.127588   1.000000
   26      -15.127588   1.000000
   27      -15.121359   1.000000
   28      -15.121359   1.000000
   29      -15.114706   1.000000
   30      -15.114706   1.000000
   31      -15.109968   1.000000
   32      -15.109968   1.000000
   33      -15.093309   1.000000
   34      -15.093309   1.000000
   35      -15.082284   1.000000
   36      -15.082284   1.000000
   37      -15.080836   1.000000
   38      -15.080836   1.000000
   39      -15.060502   1.000000
   40      -15.060502   1.000000
   41      -15.052898   1.000000
   42      -15.052898   1.000000
   43      -14.965099   1.000000
   44      -14.965099   1.000000
   45      -14.963605   1.000000
   46      -14.963605   1.000000
   47      -14.936457   1.000000
   48      -14.936457   1.000000
   49      -14.934334   1.000000
   50      -14.934334   1.000000
   51      -14.927308   1.000000
   52      -14.927308   1.000000
   53      -14.919335   1.000000
   54      -14.919335   1.000000
   55      -14.907098   1.000000
   56      -14.907098   1.000000
   57      -14.901056   1.000000
   58      -14.901056   1.000000
   59      -14.890278   1.000000
   60      -14.890278   1.000000
   61       -6.427760   1.000000
   62       -6.427760   1.000000
   63       -5.704217   1.000000
   64       -5.704217   1.000000
   65       -5.689347   1.000000
   66       -5.689347   1.000000
   67       -2.976768   1.000000
   68       -2.976768   1.000000
   69       -2.863222   1.000000
   70       -2.863222   1.000000
   71       -1.716757   1.000000
   72       -1.716757   1.000000
   73        2.978835   1.000000
   74        2.978836   1.000000
   75        3.180952   1.000000
   76        3.180953   1.000000
   77        3.633502   1.000000
   78        3.633503   1.000000
   79        4.060379   1.000000
   80        4.060379   1.000000
   81        4.901539   1.000000
   82        4.901539   1.000000
   83        5.032796   1.000000
   84        5.032796   1.000000
   85        5.379466   1.000000
   86        5.379466   1.000000
   87        5.718361   1.000096
   88        5.718361   1.000096
   89        5.931509   1.009970
   90        5.931510   1.009970
   91        6.911911  -0.000109
   92        6.911911  -0.000109
   93        7.045408  -0.000002
   94        7.045408  -0.000002
   95        7.728631  -0.000000
   96        7.728631  -0.000000
   97        8.129993  -0.000000
   98        8.129993  -0.000000
   99        8.640533  -0.000000
  100        8.640533  -0.000000
  101        8.958302  -0.000000
  102        8.958302  -0.000000
  103        9.499974  -0.000000
  104        9.499974  -0.000000
  105        9.786182  -0.000000
  106        9.786182  -0.000000
  107       10.321261  -0.000000
  108       10.321261  -0.000000
 
  0.2105263E+00  0.0000000E+00  0.0000000E+00  0.7142857E-02
    1      -18.022091   1.000000
    2      -18.022091   1.000000
    3      -18.021308   1.000000
    4      -18.021308   1.000000
    5      -18.015513   1.000000
    6      -18.015513   1.000000
    7      -18.008631   1.000000
    8      -18.008631   1.000000
    9      -18.000861   1.000000
   10      -18.000861   1.000000
   11      -17.997653   1.000000
   12      -17.997653   1.000000
   13      -17.965655   1.000000
   14      -17.965655   1.000000
   15      -17.962021   1.000000
   16      -17.962021   1.000000
   17      -17.959668   1.000000
   18      -17.959668   1.000000
   19      -17.955064   1.000000
   20      -17.955064   1.000000
   21      -17.952025   1.000000
   22      -17.952025   1.000000